<?xml version="1.0" encoding="UTF-8"?>

<!-- generated on 2024-07-01 13:07:10 by Eclipse SUMO sumo Version 1.19.0
<configuration xmlns:xsi="http://www.w3.org/2001/XMLSchema-instance" xsi:noNamespaceSchemaLocation="http://sumo.dlr.de/xsd/sumoConfiguration.xsd">

    <input>
        <net-file value="C:\Users\Jaime\Sumo\2024-07-01-13-06-59\osm.net.xml.gz"/>
        <route-files value="C:\Users\Jaime\Sumo\2024-07-01-13-06-59\trips.trips.xml"/>
        <additional-files value="C:\Users\Jaime\Sumo\2024-07-01-13-06-59\osm_stops.add.xml"/>
    </input>

    <output>
        <vehroute-output value="C:\Users\Jaime\Sumo\2024-07-01-13-06-59\vehroutes.xml"/>
        <stop-output value="C:\Users\Jaime\Sumo\2024-07-01-13-06-59\stopinfos.xml"/>
    </output>

    <time>
        <begin value="0.0"/>
    </time>

    <processing>
        <ignore-route-errors value="true"/>
    </processing>

    <routing>
        <device.rerouting.adaptation-interval value="0"/>
    </routing>

    <report>
        <aggregate-warnings value="5"/>
        <error-log value="C:\Users\Jaime\Sumo\2024-07-01-13-06-59\trips.trips.xml.errorlog"/>
        <no-step-log value="true"/>
    </report>

</configuration>
-->

<routes xmlns:xsi="http://www.w3.org/2001/XMLSchema-instance" xsi:noNamespaceSchemaLocation="http://sumo.dlr.de/xsd/routes_file.xsd">
    <vehicle id="0_train_C-2:0" type="pt_train" depart="3.00" departLane="0" arrival="50.00">
        <route edges="10157206"/>
        <stop busStop="3973025548" duration="30.00"/>
    </vehicle>

    <vehicle id="1_train_C-3:0" type="pt_train" depart="15.00" departLane="0" arrival="123.00">
        <route edges="1028342655"/>
        <stop busStop="3973025541" duration="30.00"/>
    </vehicle>

    <vehicle id="6_train_C-1:0" type="pt_train" depart="52.00" departLane="0" arrival="163.00">
        <route edges="1028342654"/>
        <stop busStop="3973025542" duration="30.00"/>
    </vehicle>

    <vehicle id="9_train_C-1:1" type="pt_train" depart="60.00" departLane="0" arrival="171.00">
        <route edges="1028342653"/>
        <stop busStop="3973025543" duration="30.00"/>
    </vehicle>

    <vehicle id="7_train_C-3:1" type="pt_train" depart="55.00" departLane="0" arrival="190.00">
        <route edges="1028342655"/>
        <stop busStop="3973025541" duration="30.00"/>
    </vehicle>

    <vehicle id="17_train_ER24:0" type="pt_train" depart="165.00" departLane="0" arrival="212.00">
        <route edges="10157206"/>
        <stop busStop="3973025548" duration="30.00"/>
    </vehicle>

    <vehicle id="11_train_C-6:0" type="pt_train" depart="119.00" departLane="0" arrival="224.00">
        <route edges="1028342656"/>
        <stop busStop="3973025540" duration="30.00"/>
    </vehicle>

    <vehicle id="10_train_C-1:2" type="pt_train" depart="93.00" departLane="0" arrival="230.00">
        <route edges="1028342654"/>
        <stop busStop="3973025542" duration="30.00"/>
    </vehicle>

    <vehicle id="18_train_ER24:1" type="pt_train" depart="212.00" departLane="0" arrival="259.00">
        <route edges="10157206"/>
        <stop busStop="3973025548" duration="30.00"/>
    </vehicle>

    <vehicle id="8_train_C-3:2" type="pt_train" depart="161.00" departLane="0" arrival="269.00">
        <route edges="1028342655"/>
        <stop busStop="3973025541" duration="30.00"/>
    </vehicle>

    <vehicle id="2_tram_10:0" type="pt_tram" depart="15.00" departLane="0" arrival="285.00">
        <route edges="-1068225426"/>
        <stop busStop="-9759469603" duration="30.00"/>
        <stop busStop="3420403041" duration="30.00"/>
        <stop busStop="9759531876" duration="30.00"/>
    </vehicle>

    <vehicle id="3_tram_10:1" type="pt_tram" depart="17.00" departLane="0" arrival="286.00">
        <route edges="320501846#0 320501846#1"/>
        <stop busStop="3420403038" duration="30.00"/>
        <stop busStop="1334394371" duration="30.00"/>
        <stop busStop="-9759522716" duration="30.00"/>
    </vehicle>

    <vehicle id="12_train_C-6:1" type="pt_train" depart="198.00" departLane="0" arrival="303.00">
        <route edges="1028342656"/>
        <stop busStop="3973025540" duration="30.00"/>
    </vehicle>

    <vehicle id="19_train_Alacant_Terminal_=_València_-_Estació_del_Nord:0" type="pt_train" depart="259.00" departLane="0" arrival="306.00">
        <route edges="10157206"/>
        <stop busStop="3973025548" duration="30.00"/>
    </vehicle>

    <vehicle id="5_tram_10:3" type="pt_tram" depart="47.00" departLane="0" arrival="324.00">
        <route edges="-1068225426"/>
        <stop busStop="-9759469603" duration="30.00"/>
        <stop busStop="3420403041" duration="30.00"/>
        <stop busStop="9759531876" duration="30.00"/>
    </vehicle>

    <vehicle id="20_train_C-2:1" type="pt_train" depart="306.00" departLane="0" arrival="353.00">
        <route edges="10157206"/>
        <stop busStop="3973025548" duration="30.00"/>
    </vehicle>

    <vehicle id="4_tram_10:2" type="pt_tram" depart="27.00" departLane="0" arrival="358.00">
        <route edges="320501846#0 320501846#1"/>
        <stop busStop="3420403038" duration="30.00"/>
        <stop busStop="1334394371" duration="30.00"/>
        <stop busStop="-9759522716" duration="30.00"/>
    </vehicle>

    <vehicle id="13_train_L-50:0" type="pt_train" depart="277.00" departLane="0" arrival="382.00">
        <route edges="1028342656"/>
        <stop busStop="3973025540" duration="30.00"/>
    </vehicle>

    <vehicle id="21_train_C-2:2" type="pt_train" depart="353.00" departLane="0" arrival="400.00">
        <route edges="10157206"/>
        <stop busStop="3973025548" duration="30.00"/>
    </vehicle>

    <vehicle id="27_train_C-5:0" type="pt_train" depart="346.00" departLane="0" arrival="421.00">
        <route edges="41051601"/>
        <stop busStop="3973025546" duration="30.00"/>
    </vehicle>

    <vehicle id="26_train_C-3:3" type="pt_train" depart="331.00" departLane="0" arrival="439.00">
        <route edges="1028342655"/>
        <stop busStop="3973025541" duration="30.00"/>
    </vehicle>

    <vehicle id="24_train_València_-_Estació_del_Nord_=_Alacant_Terminal:0" type="pt_train" depart="400.00" departLane="0" arrival="447.00">
        <route edges="10157206"/>
        <stop busStop="3973025548" duration="30.00"/>
    </vehicle>

    <vehicle id="14_train_ER-02:0" type="pt_train" depart="356.00" departLane="0" arrival="461.00">
        <route edges="1028342656"/>
        <stop busStop="3973025540" duration="30.00"/>
    </vehicle>

    <vehicle id="28_train_C-2:3" type="pt_train" depart="447.00" departLane="0" arrival="494.00">
        <route edges="10157206"/>
        <stop busStop="3973025548" duration="30.00"/>
    </vehicle>

    <vehicle id="15_train_L-50:1" type="pt_train" depart="435.00" departLane="0" arrival="540.00">
        <route edges="1028342656"/>
        <stop busStop="3973025540" duration="30.00"/>
    </vehicle>

    <vehicle id="41_train_C-1:3" type="pt_train" depart="497.00" departLane="0" arrival="608.00">
        <route edges="1028342653"/>
        <stop busStop="3973025543" duration="30.00"/>
    </vehicle>

    <vehicle id="43_train_C-1:5" type="pt_train" depart="517.00" departLane="0" arrival="611.00">
        <route edges="1028342658 748874041#1"/>
        <stop busStop="3973025544" duration="30.00"/>
    </vehicle>

    <vehicle id="16_train_ER-02:1" type="pt_train" depart="514.00" departLane="0" arrival="619.00">
        <route edges="1028342656"/>
        <stop busStop="3973025540" duration="30.00"/>
    </vehicle>

    <vehicle id="42_train_C-1:4" type="pt_train" depart="508.00" departLane="0" arrival="619.00">
        <route edges="1028342654"/>
        <stop busStop="3973025542" duration="30.00"/>
    </vehicle>

    <vehicle id="46_train_C-5:1" type="pt_train" depart="583.00" departLane="0" arrival="658.00">
        <route edges="41051601"/>
        <stop busStop="3973025546" duration="30.00"/>
    </vehicle>

    <vehicle id="44_bus_Bus_entre_estaciones_Valencia_Norte_y_Joaquín_Sorolla:0" type="pt_bus" depart="535.00" departLane="0" arrival="683.00">
        <route edges="1003466036#0 1003466036#1 261880277#1 261880278"/>
        <stop busStop="2674971391" duration="30.00"/>
    </vehicle>

    <vehicle id="22_train_L-50:2" type="pt_train" depart="593.00" departLane="0" arrival="698.00">
        <route edges="1028342656"/>
        <stop busStop="3973025540" duration="30.00"/>
    </vehicle>

    <vehicle id="23_train_L-50:3" type="pt_train" depart="672.00" departLane="0" arrival="777.00">
        <route edges="1028342656"/>
        <stop busStop="3973025540" duration="30.00"/>
    </vehicle>

    <vehicle id="34_subway_1:1" type="pt_subway" depart="418.00" departLane="0" arrival="786.00">
        <route edges="-822279165#2 -822279165#1 -822279165#0 -822279163 -23776427"/>
        <stop busStop="-137045354" duration="30.00"/>
        <stop busStop="-137045360" duration="30.00"/>
        <stop busStop="-126738958" duration="30.00"/>
        <stop busStop="-474683327" duration="30.00"/>
    </vehicle>

    <vehicle id="31_subway_2:0" type="pt_subway" depart="383.00" departLane="0" arrival="823.00">
        <route edges="822279164#0 822279164#1 822279164#2"/>
        <stop busStop="3348096580" duration="30.00"/>
        <stop busStop="3300258617" duration="30.00"/>
        <stop busStop="3300258624" duration="30.00"/>
        <stop busStop="3300258625" duration="30.00"/>
        <stop busStop="3300258626" duration="30.00"/>
    </vehicle>

    <vehicle id="35_subway_2:1" type="pt_subway" depart="433.00" departLane="0" arrival="835.00">
        <route edges="-822279165#2 -822279165#1 -822279165#0 -822279163 -23776427"/>
        <stop busStop="-137045354" duration="30.00"/>
        <stop busStop="-137045360" duration="30.00"/>
        <stop busStop="-126738958" duration="30.00"/>
        <stop busStop="-474683327" duration="30.00"/>
    </vehicle>

    <vehicle id="25_train_C-6:2" type="pt_train" depart="751.00" departLane="0" arrival="856.00">
        <route edges="1028342656"/>
        <stop busStop="3973025540" duration="30.00"/>
    </vehicle>

    <vehicle id="32_subway_1:0" type="pt_subway" depart="435.00" departLane="0" arrival="875.00">
        <route edges="822279164#0 822279164#1 822279164#2"/>
        <stop busStop="3348096580" duration="30.00"/>
        <stop busStop="3300258617" duration="30.00"/>
        <stop busStop="3300258624" duration="30.00"/>
        <stop busStop="3300258625" duration="30.00"/>
        <stop busStop="3300258626" duration="30.00"/>
    </vehicle>

    <vehicle id="45_train_C-6:3" type="pt_train" depart="830.00" departLane="0" arrival="935.00">
        <route edges="1028342656"/>
        <stop busStop="3973025540" duration="30.00"/>
    </vehicle>

    <vehicle id="38_subway_7:1" type="pt_subway" depart="483.00" departLane="0" arrival="1002.00">
        <route edges="330506672 330506085#0 377367122#0 377367122#1"/>
        <stop busStop="3292250673" duration="30.00"/>
        <stop busStop="3288743173" duration="30.00"/>
        <stop busStop="3286032162" duration="30.00"/>
        <stop busStop="3290266973" duration="30.00"/>
        <stop busStop="3290266975" duration="30.00"/>
        <stop busStop="3290266999" duration="30.00"/>
    </vehicle>

    <vehicle id="33_subway_3:0" type="pt_subway" depart="406.00" departLane="0" arrival="1178.00">
        <route edges="328525628#0 328525628#1 330506085#0 233678857#0 233678857#1"/>
        <stop busStop="3299339267" duration="30.00"/>
        <stop busStop="3299339264" duration="30.00"/>
        <stop busStop="3299338356" duration="30.00"/>
        <stop busStop="3299338336" duration="30.00"/>
        <stop busStop="3352213376" duration="30.00"/>
        <stop busStop="3289974569" duration="30.00"/>
        <stop busStop="3288743173" duration="30.00"/>
        <stop busStop="3352213321" duration="30.00"/>
        <stop busStop="2420238762" duration="30.00"/>
    </vehicle>

    <vehicle id="36_subway_3:1" type="pt_subway" depart="437.00" departLane="0" arrival="1212.00">
        <route edges="11697495 328402046 322224864#0 323321229#1 323321229#2"/>
        <stop busStop="104667516" duration="30.00"/>
        <stop busStop="100937003" duration="30.00"/>
        <stop busStop="104667613" duration="30.00"/>
        <stop busStop="126738929" duration="30.00"/>
        <stop busStop="3298673412" duration="30.00"/>
        <stop busStop="129946697" duration="30.00"/>
        <stop busStop="129946955" duration="30.00"/>
        <stop busStop="1145573720" duration="30.00"/>
        <stop busStop="316591398" duration="30.00"/>
    </vehicle>

    <vehicle id="40_subway_9:1" type="pt_subway" depart="485.00" departLane="0" arrival="1257.00">
        <route edges="328525628#0 328525628#1 330506085#0 233678857#0 233678857#1"/>
        <stop busStop="3299339267" duration="30.00"/>
        <stop busStop="3299339264" duration="30.00"/>
        <stop busStop="3299338356" duration="30.00"/>
        <stop busStop="3299338336" duration="30.00"/>
        <stop busStop="3352213376" duration="30.00"/>
        <stop busStop="3289974569" duration="30.00"/>
        <stop busStop="3288743173" duration="30.00"/>
        <stop busStop="3352213321" duration="30.00"/>
        <stop busStop="2420238762" duration="30.00"/>
    </vehicle>

    <vehicle id="39_subway_9:0" type="pt_subway" depart="484.00" departLane="0" arrival="1261.00">
        <route edges="11697495 328402046 322224864#0 323321229#1 323321229#2"/>
        <stop busStop="104667516" duration="30.00"/>
        <stop busStop="100937003" duration="30.00"/>
        <stop busStop="104667613" duration="30.00"/>
        <stop busStop="126738929" duration="30.00"/>
        <stop busStop="3298673412" duration="30.00"/>
        <stop busStop="129946697" duration="30.00"/>
        <stop busStop="129946955" duration="30.00"/>
        <stop busStop="1145573720" duration="30.00"/>
        <stop busStop="316591398" duration="30.00"/>
    </vehicle>

    <vehicle id="30_subway_5:0" type="pt_subway" depart="371.00" departLane="0" arrival="1409.00">
        <route edges="328525628#0 328525628#1 330506085#0 377367122#0 377367122#1"/>
        <stop busStop="3299339267" duration="30.00"/>
        <stop busStop="3299339264" duration="30.00"/>
        <stop busStop="3299338356" duration="30.00"/>
        <stop busStop="3299338336" duration="30.00"/>
        <stop busStop="3352213376" duration="30.00"/>
        <stop busStop="3289974569" duration="30.00"/>
        <stop busStop="3288743173" duration="30.00"/>
        <stop busStop="3286032162" duration="30.00"/>
        <stop busStop="3290266973" duration="30.00"/>
        <stop busStop="3290266975" duration="30.00"/>
        <stop busStop="3290266999" duration="30.00"/>
    </vehicle>

    <vehicle id="29_subway_7:0" type="pt_subway" depart="362.00" departLane="0" arrival="1575.00">
        <route edges="377367121#0 377367122#1 328402046 11353724"/>
        <stop busStop="260601661" duration="30.00"/>
        <stop busStop="260594756" duration="30.00"/>
        <stop busStop="100946872" duration="30.00"/>
        <stop busStop="3286032162" duration="30.00"/>
        <stop busStop="104667613" duration="30.00"/>
        <stop busStop="357913578" duration="30.00"/>
    </vehicle>

    <vehicle id="37_subway_5:1" type="pt_subway" depart="441.00" departLane="0" arrival="2356.00">
        <route edges="377367121#0 377367122#1 328402046 322224864#0 323321229#1 323321229#2"/>
        <stop busStop="260601661" duration="30.00"/>
        <stop busStop="260594756" duration="30.00"/>
        <stop busStop="100946872" duration="30.00"/>
        <stop busStop="3286032162" duration="30.00"/>
        <stop busStop="104667613" duration="30.00"/>
        <stop busStop="126738929" duration="30.00"/>
        <stop busStop="3298673412" duration="30.00"/>
        <stop busStop="129946697" duration="30.00"/>
        <stop busStop="129946955" duration="30.00"/>
        <stop busStop="1145573720" duration="30.00"/>
        <stop busStop="316591398" duration="30.00"/>
    </vehicle>

</routes>
