<?xml version="1.0" encoding="UTF-8"?>

<!-- generated on 2024-06-24 12:29:45 by Eclipse SUMO sumo Version 1.19.0
<configuration xmlns:xsi="http://www.w3.org/2001/XMLSchema-instance" xsi:noNamespaceSchemaLocation="http://sumo.dlr.de/xsd/sumoConfiguration.xsd">

    <input>
        <net-file value="C:\Users\Jaime\Sumo\2024-06-24-12-29-34\osm.net.xml.gz"/>
        <route-files value="C:\Users\Jaime\Sumo\2024-06-24-12-29-34\trips.trips.xml"/>
        <additional-files value="C:\Users\Jaime\Sumo\2024-06-24-12-29-34\osm_stops.add.xml"/>
    </input>

    <output>
        <vehroute-output value="C:\Users\Jaime\Sumo\2024-06-24-12-29-34\vehroutes.xml"/>
        <stop-output value="C:\Users\Jaime\Sumo\2024-06-24-12-29-34\stopinfos.xml"/>
    </output>

    <time>
        <begin value="0.0"/>
    </time>

    <processing>
        <ignore-route-errors value="true"/>
    </processing>

    <routing>
        <device.rerouting.adaptation-interval value="0"/>
    </routing>

    <report>
        <aggregate-warnings value="5"/>
        <error-log value="C:\Users\Jaime\Sumo\2024-06-24-12-29-34\trips.trips.xml.errorlog"/>
        <no-step-log value="true"/>
    </report>

</configuration>
-->

<routes xmlns:xsi="http://www.w3.org/2001/XMLSchema-instance" xsi:noNamespaceSchemaLocation="http://sumo.dlr.de/xsd/routes_file.xsd">
    <vehicle id="7_bus_133:1" type="pt_bus" depart="19.00" departLane="0" arrival="67.00">
        <route edges="651525544#0 104799919#0 839411286#1 30993228#1 30993228#2"/>
    </vehicle>

    <vehicle id="10_bus_146:0" type="pt_bus" depart="34.00" departLane="0" arrival="83.00">
        <route edges="269291945#2"/>
        <stop busStop="3428239936" duration="30.00"/>
    </vehicle>

    <vehicle id="0_train_MD_18061:0" type="pt_train" depart="0.00" departLane="0" arrival="90.00">
        <route edges="119181079#0 119181079#1"/>
        <stop busStop="1493565877" duration="30.00"/>
    </vehicle>

    <vehicle id="21_bus_15:1" type="pt_bus" depart="66.00" departLane="0" arrival="108.00">
        <route edges="813598084"/>
        <stop busStop="21968139" duration="30.00"/>
    </vehicle>

    <vehicle id="6_bus_133:0" type="pt_bus" depart="17.00" departLane="0" arrival="112.00">
        <route edges="554359457 239499978#1 -82280716#1 -82280716#0 7642939#0 7642939#1 7642939#2 7642939#3 7642939#4 7642939#5 7642939#7 -651525544#0"/>
        <stop busStop="2472773304" duration="30.00"/>
    </vehicle>

    <vehicle id="9_bus_138:1" type="pt_bus" depart="28.00" departLane="0" arrival="145.00">
        <route edges="4334161 43410327#0 71808951 4308590#0 4308590#3 4308590#4 71808941 31000689#0 31000689#2 31000689#3"/>
    </vehicle>

    <vehicle id="18_bus_150:0" type="pt_bus" depart="58.00" departLane="0" arrival="156.00">
        <route edges="1057894241#0 626418867#1 43759793#0 43759793#1 43759793#2 43759793#3 431767100#0 431767100#1 4346299#0 4346299#1 4346299#4 4346299#5 321307747 242547871 131431688#0"/>
        <stop busStop="5006352930" duration="30.00"/>
    </vehicle>

    <vehicle id="2_train_RE_18009:0" type="pt_train" depart="33.00" departLane="0" arrival="157.00">
        <route edges="119181079#0 119181079#1"/>
        <stop busStop="1493565877" duration="30.00"/>
    </vehicle>

    <vehicle id="20_bus_15:0" type="pt_bus" depart="65.00" departLane="0" arrival="167.00">
        <route edges="302579019#0 302579019#1 762216476#0 112538828#0 112538828#1 112538828#2 112538828#3 112538828#6 243990688#0 168404659 663316135 46098088#0 46098088#1 908546756#1 417019353 511241905#0 7971500 813598084"/>
        <stop busStop="8423213265" duration="30.00"/>
    </vehicle>

    <vehicle id="8_bus_138:0" type="pt_bus" depart="27.00" departLane="0" arrival="169.00">
        <route edges="293722999 293723002#0 4308591 31000691#0 71808949#0 71808949#1 71808949#3 44535822 44535820 542325013#0 542325013#1"/>
        <stop busStop="8272206383" duration="30.00"/>
    </vehicle>

    <vehicle id="12_bus_147:0" type="pt_bus" depart="41.00" departLane="1" arrival="172.00">
        <route edges="293712003#0 293712003#1 293712003#3 293712003#4 30993228#1 30993228#2 554359457 239499978#1 45757393 4487153 31053391 269291945#0 269291945#1 269291945#2"/>
    </vehicle>

    <vehicle id="19_bus_150:1" type="pt_bus" depart="60.00" departLane="0" arrival="187.00">
        <route edges="907102748#0 907102748#1 131443348#0 4349010 511895636 1260545323#0 1260545323#1 1260545324 7971496#0 7971496#1 7971496#2 7971496#3 7971496#4 43759728#0 43759728#2 1057894241#0"/>
        <stop busStop="5006352930" duration="30.00"/>
    </vehicle>

    <vehicle id="23_bus_17:1" type="pt_bus" depart="91.00" departLane="0" arrival="200.00">
        <route edges="907553665 4263086#0 41699453#1 41699453#2 398751337#0 398751337#1 398751337#3 690824245 130468268#1 -909029029#2 -909029029#0 -4346292#4"/>
        <stop busStop="5342725022" duration="30.00"/>
    </vehicle>

    <vehicle id="3_train_MD_18063:0" type="pt_train" depart="66.00" departLane="0" arrival="224.00">
        <route edges="119181079#0 119181079#1"/>
        <stop busStop="1493565877" duration="30.00"/>
    </vehicle>

    <vehicle id="22_bus_17:0" type="pt_bus" depart="77.00" departLane="0" arrival="227.00">
        <route edges="4346292#0 4346292#6 909029029#1 -130468268#1 -690824245 -398751337#3 -398751337#2 -398751337#0 -41699453#2 -41699453#1 41699477#1 7732075 1275422412"/>
        <stop busStop="8422641941" duration="30.00"/>
    </vehicle>

    <vehicle id="43_bus_33:0" type="pt_bus" depart="158.00" departLane="0" arrival="228.00">
        <route edges="293722999 293723002#0 44535825#0"/>
        <stop busStop="8272206383" duration="30.00"/>
    </vehicle>

    <vehicle id="13_bus_147:1" type="pt_bus" depart="73.00" departLane="0" arrival="234.00">
        <route edges="269291945#2 -335713716#0 -269291945#1 -269291945#0 45757392 -239499978#1 -239499978#0 -30993228#2 -30993228#1 -293712003#4 -293712003#3 -293712003#2 -293712003#0"/>
        <stop busStop="5321927322" duration="30.00"/>
    </vehicle>

    <vehicle id="56_bus_44:1" type="pt_bus" depart="194.00" departLane="0" arrival="242.00">
        <route edges="651525544#0 104799919#0 839411286#1 30993228#1 30993228#2 554359457"/>
    </vehicle>

    <vehicle id="16_bus_14:0" type="pt_bus" depart="54.00" departLane="0" arrival="262.00">
        <route edges="562027283 562027284#1 302580240#0 302580240#1 243991597 243991596#0 243991596#1 911013768"/>
        <stop busStop="8433060766" duration="30.00"/>
    </vehicle>

    <vehicle id="24_bus_18:0" type="pt_bus" depart="93.00" departLane="0" arrival="269.00">
        <route edges="7732075 1275422412 907553665 4263086#0 41699453#1 41699453#2 398751337#0 398751337#1 398751337#3 690824245 130468268#1 -909029029#2 -909029029#0 -4346292#4"/>
        <stop busStop="1437056478" duration="30.00"/>
    </vehicle>

    <vehicle id="25_bus_18:1" type="pt_bus" depart="98.00" departLane="0" arrival="271.00">
        <route edges="4346292#0 4346292#6 909029029#1 -130468268#1 -690824245 -398751337#3 -398751337#2 -398751337#0 -41699453#2 -41699453#1 41699477#1 7732075"/>
        <stop busStop="8422641941" duration="30.00"/>
    </vehicle>

    <vehicle id="34_bus_26:1" type="pt_bus" depart="131.00" departLane="0" arrival="279.00">
        <route edges="554357604#0 70955584#0 70955584#1 70955584#2 4328769 423638485 686213118#0 423232043 48345480#0 48345480#2 1275083958#0 82567675#0 82567675#3"/>
        <stop busStop="5350038443" duration="30.00"/>
    </vehicle>

    <vehicle id="55_bus_44:0" type="pt_bus" depart="189.00" departLane="0" arrival="283.00">
        <route edges="554359457 239499978#1 -82280716#1 -82280716#0 7642939#0 7642939#1 7642939#2 7642939#3 7642939#4 7642939#5 7642939#7 -651525544#0"/>
        <stop busStop="5350055328" duration="30.00"/>
    </vehicle>

    <vehicle id="5_subway_L10:1" type="pt_subway" depart="15.00" departLane="0" arrival="293.00">
        <route edges="1054025304"/>
        <stop busStop="5310093880" duration="30.00"/>
        <stop busStop="5310093878" duration="30.00"/>
        <stop busStop="5310093877" duration="30.00"/>
        <stop busStop="7559826150" duration="30.00"/>
    </vehicle>

    <vehicle id="47_bus_35:1" type="pt_bus" depart="160.00" departLane="0" arrival="300.00">
        <route edges="41699477#1 41699518#0 31262320#1 31262320#2 4328609 4328605#0 4328605#1 398751337#3 690824245 130468268#1 -909029029#2 -909029029#0 -4346292#4"/>
        <stop busStop="5351138581" duration="30.00"/>
    </vehicle>

    <vehicle id="11_bus_146:1" type="pt_bus" depart="38.00" departLane="0" arrival="301.00">
        <route edges="302579020#0 302579020#1 885687791 907102747 762216476#0 112538828#0 112538828#1 112538828#2 112538828#3 112538828#6 4328840 651543114#1 -419119406#1 -419119406#0 -32597088 43410312#0 43410312#1 651613048#0 423000381 936883629 155551743#0 155551743#1 155551743#2 1238944954 651533184#0 -335713716#0"/>
        <stop busStop="3068279551" duration="30.00"/>
    </vehicle>

    <vehicle id="70_bus_5:1" type="pt_bus" depart="262.00" departLane="0" arrival="305.00">
        <route edges="813598084"/>
        <stop busStop="21968139" duration="30.00"/>
    </vehicle>

    <vehicle id="31_bus_25:0" type="pt_bus" depart="126.00" departLane="0" arrival="306.00">
        <route edges="293722999 293723002#0 4308591 31000691#0 71808949#0 71808949#1 71808949#3 44535822 44535820 542325013#0 542325013#1"/>
        <stop busStop="8272206383" duration="30.00"/>
    </vehicle>

    <vehicle id="46_bus_35:0" type="pt_bus" depart="160.00" departLane="0" arrival="313.00">
        <route edges="4346292#0 4346292#6 909029029#1 -130468268#1 -690824245 -398751337#3 -398751337#2 -398751337#0 -41699453#2 -41699453#1 41699477#1"/>
        <stop busStop="8422641941" duration="30.00"/>
    </vehicle>

    <vehicle id="30_bus_23:1" type="pt_bus" depart="125.00" departLane="0" arrival="315.00">
        <route edges="7732075 1275422412 907553665 4263086#0 41699453#1 41699453#2 398751337#0 398751337#1 398751337#3 690824245 130468268#1 -909029029#2 -909029029#0 -4346292#4"/>
        <stop busStop="1437056478" duration="30.00"/>
    </vehicle>

    <vehicle id="48_bus_36:0" type="pt_bus" depart="165.00" departLane="0" arrival="316.00">
        <route edges="40933501#0 40933501#1 32480293#1 32480293#2 32480293#3 32480293#4 32480293#5 32480293#6"/>
        <stop busStop="8423406977" duration="30.00"/>
    </vehicle>

    <vehicle id="15_bus_148:1" type="pt_bus" depart="52.00" departLane="0" arrival="319.00">
        <route edges="7732896 1137958525#0 1137958525#1 1137958526#0 387848379#1 1137958527 4264184#0 4264184#1 4264184#2 355939668 355939669#0 355939669#1 355939669#2 355939669#3 355939669#4 355939669#5 107467881#0 71634922#0 71634922#1 71634922#2 4518851#0 4518851#1 435012914#1 7971925#0 7971925#1 31021779#0 31021779#3 31021779#4 31021779#5 31021779#6 17760812#0 17760812#1 17760812#2 17760808 79483259#1 79483259#2 767647778#0 443396463 269291945#0 269291945#1 269291945#2"/>
        <stop busStop="5970506960" duration="30.00"/>
    </vehicle>

    <vehicle id="29_bus_23:0" type="pt_bus" depart="120.00" departLane="0" arrival="321.00">
        <route edges="4346292#0 4346292#6 909029029#1 -130468268#1 -690824245 -398751337#3 -398751337#2 -398751337#0 -41699453#2 -41699453#1 41699477#1 7732075"/>
        <stop busStop="8422641941" duration="30.00"/>
    </vehicle>

    <vehicle id="40_bus_31:1" type="pt_bus" depart="147.00" departLane="0" arrival="330.00">
        <route edges="907553665 4519456#2 168406442#1 49016411#0 -7972312#4 -7972312#3 -7972312#2 -7972312#1 -7972312#0 -31309326#4 -31309326#3 -31309326#2 -31309326#1 -689780380 -44885764#6 -44885764#5 -44885764#4 -44885764#3 -44885764#2 -44885764#1 -45316487#2 -45316487#0 -40933501#1 -40933501#0"/>
        <stop busStop="8427149777" duration="30.00"/>
    </vehicle>

    <vehicle id="1_train_C-4:0" type="pt_train" depart="3.00" departLane="0" arrival="334.00">
        <route edges="695991680 695991678"/>
        <stop busStop="3660257614" duration="30.00"/>
    </vehicle>

    <vehicle id="33_bus_26:0" type="pt_bus" depart="131.00" departLane="0" arrival="347.00">
        <route edges="-1275083956#1 -82567675#2 -320668245#1 4328795#0 4328795#1 4328795#2 686213116#0 423231391#0 423231391#4 423231391#5 423231391#6 685983423 7732078 70955486 1275422405 1275422411#0 1275422411#1 31262334#0 31262349#1"/>
        <stop busStop="-8423356513" duration="30.00"/>
    </vehicle>

    <vehicle id="72_bus_60:1" type="pt_bus" depart="275.00" departLane="0" arrival="351.00">
        <route edges="4346292#0 4346292#6"/>
        <stop busStop="8440470099" duration="30.00"/>
    </vehicle>

    <vehicle id="27_bus_1:1" type="pt_bus" depart="107.00" departLane="0" arrival="353.00">
        <route edges="302579020#0 302579020#1 885687791 907102747 762216476#0 112538828#0 112538828#1 112538828#2 112538828#3 112538828#6 4328840 651543114#1 -419119406#1 -419119406#0 -32597088 43410312#0 43410312#1 651613048#0 423000381 936883629 155551743#0 155551743#1 155551743#2 1238944954 651533184#0 -335713716#0 -269291945#1 -269291945#0 45757392 -82280716#1 -82280716#0 7642939#0 7642939#1 7642939#2 7642939#3 7642939#4 7642939#5 7642939#7 -651525544#0"/>
        <stop busStop="3068279551" duration="30.00"/>
    </vehicle>

    <vehicle id="71_bus_60:0" type="pt_bus" depart="272.00" departLane="0" arrival="362.00">
        <route edges="7732894#0 7732894#1 7732894#3 896274305 5927085#0 5927797#1 5927797#2 -131451861 130468268#1 -909029029#2 -909029029#0"/>
        <stop busStop="8440470083" duration="30.00"/>
    </vehicle>

    <vehicle id="32_bus_25:1" type="pt_bus" depart="127.00" departLane="0" arrival="365.00">
        <route edges="4334161 43410327#0 71808951 4308590#0 4308590#3 4308590#4 71808941 31000689#0 31000689#2 31000689#3"/>
        <stop busStop="8235796741" duration="30.00"/>
        <stop busStop="1439703616" duration="30.00"/>
        <stop busStop="8272206405" duration="30.00"/>
    </vehicle>

    <vehicle id="52_bus_39:1" type="pt_bus" depart="184.00" departLane="0" arrival="373.00">
        <route edges="293722999 293723002#0 4308591 31000691#0 71808949#0 71808949#1 71808949#3 44535822 44535820 542325013#0 542325013#1"/>
        <stop busStop="8272206383" duration="30.00"/>
    </vehicle>

    <vehicle id="88_bus_M1:1" type="pt_bus" depart="334.00" departLane="0" arrival="377.00">
        <route edges="813598084"/>
        <stop busStop="21968139" duration="30.00"/>
    </vehicle>

    <vehicle id="66_bus_52:1" type="pt_bus" depart="253.00" departLane="0" arrival="382.00">
        <route edges="30676408 31261348#0 31261348#1 43759728#0 43759728#2 1057894241#0 626418867#1 43759793#0 43759793#1 43759793#2 43759793#3 431767100#0 431767100#1 4346299#0 4346299#1 4346299#4 4346299#5 321307747 242547871 131431688#0"/>
        <stop busStop="339242703" duration="30.00"/>
    </vehicle>

    <vehicle id="42_bus_32:1" type="pt_bus" depart="158.00" departLane="0" arrival="388.00">
        <route edges="-1275083956#1 -82567675#2 -320668245#1 4328795#0 4328795#1 4328795#2 686213116#0 423231391#0 423231391#4 423231391#5 423231391#6 685983423 7732078"/>
        <stop busStop="-8423356513" duration="30.00"/>
    </vehicle>

    <vehicle id="41_bus_32:0" type="pt_bus" depart="157.00" departLane="0" arrival="391.00">
        <route edges="7732078 70955486 1275422405 1275422411#0 1275422411#1 31262334#0 31262349#1 554357604#0 70955584#0 70955584#1 70955584#2 4328769 423638485 686213118#0 423232043 48345480#0 48345480#2 1275083958#0 82567675#0 82567675#3"/>
        <stop busStop="1493715148" duration="30.00"/>
    </vehicle>

    <vehicle id="14_bus_148:0" type="pt_bus" depart="80.00" departLane="0" arrival="392.00">
        <route edges="269291945#2 -335713716#0 -269291945#1 -269291945#0 335717550 4487153 335717551#0 7971933 17760817 7971930 31021778#0 31021778#1 31021779#5 31021779#6 17760812#0 17760812#1 17760812#2 7971935 7971921#0 7971922 31053363#0 -107467881#0 -107467873#0 -355939669#4 -355939669#3 -355939669#2 -355939669#1 -355939669#0 -355939668 -4264184#2 -4264184#1 -4264184#0 7726329#0 4519460#0 1137958509 686216025 388098819#0 388098819#1 1137958510 7732898"/>
        <stop busStop="8440634409" duration="30.00"/>
    </vehicle>

    <vehicle id="17_bus_14:1" type="pt_bus" depart="55.00" departLane="0" arrival="395.00">
        <route edges="907102748#0 907102748#1 131443348#0 4349010 511895636 1260545323#0 1260545323#1 1260545324 44288721#1 44288721#2 262951802#0 30674611 686214706#0 686214706#1 686214706#2 686214706#3 262951801#0 262951801#1 262951801#2 262951801#3 262951801#5"/>
        <stop busStop="8440634349" duration="30.00"/>
    </vehicle>

    <vehicle id="36_bus_27:1" type="pt_bus" depart="133.00" departLane="0" arrival="395.00">
        <route edges="907102748#0 907102748#1 131443348#0 4349010 511895636 1260545323#0 1260545323#1 1260545324 44288721#1 44288721#2 262951802#0 30674611 686214706#0 686214706#1 686214706#2 686214706#3 262951801#0 262951801#1 262951801#2 262951801#3 262951801#5"/>
        <stop busStop="8440634349" duration="30.00"/>
    </vehicle>

    <vehicle id="44_bus_34:0" type="pt_bus" depart="159.00" departLane="0" arrival="395.00">
        <route edges="44288719#1 1260545323#0 1260545323#1 1260545324 44288721#1 44288721#2 262951802#0 30674611 686214706#0 686214706#1 686214706#2 686214706#3 262951801#0 262951801#1 262951801#2 262951801#3 262951801#5"/>
        <stop busStop="5342725021" duration="30.00"/>
    </vehicle>

    <vehicle id="49_bus_37:0" type="pt_bus" depart="166.00" departLane="0" arrival="397.00">
        <route edges="907102748#0 907102748#1 131443348#0 4349010 511895636 1260545323#0 1260545323#1 1260545324 44288721#1 44288721#2 262951802#0 30674611 686214706#0 686214706#1 686214706#2 686214706#3 262951801#0 262951801#1 262951801#2 262951801#3 262951801#5"/>
        <stop busStop="8440634349" duration="30.00"/>
    </vehicle>

    <vehicle id="39_bus_31:0" type="pt_bus" depart="139.00" departLane="0" arrival="398.00">
        <route edges="40933501#0 40933501#1 45316487#0 45316487#1 44885764#1 44885764#2 44885764#3 44885764#4 44885764#5 44885764#6 689780380 31309326#0 31309326#2 31309326#3 31309326#4 7972312#0 7972312#1 7972312#2 7972312#3 7972312#4 -49016411#1 -168406442#2 7732076#0 7732076#1 41699477#1 7732075 1275422412 907553665"/>
        <stop busStop="8423406967" duration="30.00"/>
    </vehicle>

    <vehicle id="63_bus_51:0" type="pt_bus" depart="228.00" departLane="0" arrival="407.00">
        <route edges="302579018#0 302579018#1 907102747 762216476#0 112538828#0 112538828#1 112538828#2 112538828#3 112538828#6 243990688#0 168404659 663316135 46098088#0 46098088#1 908546756#1 417019353 984759713#1"/>
        <stop busStop="2506473215" duration="30.00"/>
    </vehicle>

    <vehicle id="26_bus_1:0" type="pt_bus" depart="102.00" departLane="0" arrival="408.00">
        <route edges="651525544#0 104799919#0 839411286#1 30993228#1 30993228#2 554359457 239499978#1 45757393 4487153 31053391 269291945#0 269291945#1 269291945#2 490391709#0 -1238944954 -155551743#2 -155551743#1 -155551743#0 -936883629 -423000381 -651613048#0 -43410312#1 -43410312#0 32597088 419119406#0 419119406#1 -651543114#1 804457302 46098085#0 46098085#1 4346299#0 4346299#1 4346299#4 4346299#5 321307747 242547871 131431688#0"/>
    </vehicle>

    <vehicle id="69_bus_5:0" type="pt_bus" depart="260.00" departLane="0" arrival="422.00">
        <route edges="907102748#0 907102748#1 4346298#0 112538828#0 112538828#1 112538828#2 112538828#3 112538828#6 243990688#0 168404659 663316135 46098088#0 46098088#1 908546756#1 417019353 511241905#0 7971500 813598084"/>
        <stop busStop="21968139" duration="30.00"/>
    </vehicle>

    <vehicle id="54_bus_3:1" type="pt_bus" depart="188.00" departLane="1" arrival="426.00">
        <route edges="293712003#0 293712003#1 293712003#3 293712003#4 30993228#1 30993228#2 554359457 239499978#1 45757393 4487153 335717551#0 7971933 17760817 7971930 31021778#0 31021778#1 31021779#5 31021779#6 17760812#0 17760812#1 17760812#2 7971935 7971921#0 7971922 31053363#0 -107467881#0 -107467873#0 -355939669#4 -355939669#3 -355939669#2 -355939669#1 -355939669#0 -355939668 -4264184#2 -4264184#1 -4264184#0 7726329#0 4519460#0 1137958509 686216025 388098819#0 388098819#1 1137958510 7732898"/>
    </vehicle>

    <vehicle id="64_bus_51:1" type="pt_bus" depart="237.00" departLane="0" arrival="433.00">
        <route edges="984759713#1 7642926#1 7642926#2 335825753#2 1287224511#0 -651543114#1 804457302 46098085#0 46098085#1 4346299#0 4346299#1 4346299#4 4346299#5 321307747 242547871 131431688#0"/>
        <stop busStop="9104252079" duration="30.00"/>
    </vehicle>

    <vehicle id="65_bus_52:0" type="pt_bus" depart="267.00" departLane="0" arrival="444.00">
        <route edges="302579018#0 302579018#1 907102747 762216476#0 112538828#0 112538828#1 112538828#2 112538828#3 112538828#6 243990688#0 168404659 663316135 46098088#0 46098088#1 908546756#1 417019353 511241905#0 7971500 813598084 7971499"/>
        <stop busStop="2506473215" duration="30.00"/>
    </vehicle>

    <vehicle id="51_bus_39:0" type="pt_bus" depart="179.00" departLane="0" arrival="446.00">
        <route edges="4334161 43410327#0 71808951 4308590#0 4308590#3 4308590#4 71808941 31000689#0 31000689#2 31000689#3"/>
        <stop busStop="8235796741" duration="30.00"/>
        <stop busStop="1439703616" duration="30.00"/>
        <stop busStop="8272206405" duration="30.00"/>
    </vehicle>

    <vehicle id="35_bus_27:0" type="pt_bus" depart="132.00" departLane="0" arrival="449.00">
        <route edges="562027283 562027284#1 302580240#0 302580240#1 243991597 243991596#0 243991596#1 911013768"/>
        <stop busStop="8433060766" duration="30.00"/>
    </vehicle>

    <vehicle id="74_bus_62:1" type="pt_bus" depart="291.00" departLane="0" arrival="452.00">
        <route edges="293722999 293723002#0 4308591 31000691#0 71808949#0 71808949#1 71808949#3 44535822 673102680 26631682"/>
        <stop busStop="8272206383" duration="30.00"/>
    </vehicle>

    <vehicle id="37_bus_2:0" type="pt_bus" depart="143.00" departLane="0" arrival="459.00">
        <route edges="302579020#0 302579020#1 885687791 907102747 762216476#0 112538828#0 112538828#1 112538828#2 112538828#3 112538828#6 4328840 651543114#1 -419119406#1 -419119406#0 -32597088 43410312#0 43410312#1 651613048#0 423000381 936883629 155551743#0 155551743#1 155551743#2 1238944954 651533184#0 -335713716#0 -269291945#1 -269291945#0 45757392 -82280716#1 -82280716#0 7642939#0 7642939#1 7642939#2 7642939#3 7642939#4 7642939#5 7642939#7 -651525544#0"/>
        <stop busStop="3068279551" duration="30.00"/>
    </vehicle>

    <vehicle id="68_bus_53:1" type="pt_bus" depart="289.00" departLane="0" arrival="460.00">
        <route edges="30676408 31261348#0 31261348#1 43759728#0 43759728#2 1057894241#0 626418867#1 43759793#0 43759793#1 43759793#2 43759793#3 431767100#0 431767100#1 4346299#0 4346299#1 4346299#4 4346299#5 321307747 242547871 131431688#0"/>
        <stop busStop="339242703" duration="30.00"/>
    </vehicle>

    <vehicle id="38_bus_2:1" type="pt_bus" depart="137.00" departLane="0" arrival="464.00">
        <route edges="651525544#0 104799919#0 839411286#1 30993228#1 30993228#2 554359457 239499978#1 45757393 4487153 31053391 269291945#0 269291945#1 269291945#2 490391709#0 -1238944954 -155551743#2 -155551743#1 -155551743#0 -936883629 -423000381 -651613048#0 -43410312#1 -43410312#0 32597088 419119406#0 419119406#1 -651543114#1 804457302 46098085#0 46098085#1 4346299#0 4346299#1 4346299#4 4346299#5 321307747 242547871 131431688#0"/>
    </vehicle>

    <vehicle id="78_bus_6:1" type="pt_bus" depart="310.00" departLane="0" arrival="475.00">
        <route edges="-1275083956#1 -82567675#2 -320668245#1 4328795#0 4328795#1 4328795#2 686213116#0 423231391#0 423231391#4 423231391#5 423231391#6 685983423 7732078"/>
        <stop busStop="-8423356513" duration="30.00"/>
    </vehicle>

    <vehicle id="45_bus_34:1" type="pt_bus" depart="160.00" departLane="0" arrival="487.00">
        <route edges="562027283 562027284#1 302580240#0 302580240#1 243991597 243991596#0 243991596#1 911013768"/>
        <stop busStop="8433060766" duration="30.00"/>
    </vehicle>

    <vehicle id="83_bus_9:0" type="pt_bus" depart="353.00" departLane="0" arrival="494.00">
        <route edges="302579020#0 302579020#1 885687791 907102747 762216476#0 112538828#0 112538828#1 112538828#2 112538828#3 112538828#6 243990688#0 168404659 663316135 46098088#0 46098088#1"/>
        <stop busStop="8235796758" duration="30.00"/>
    </vehicle>

    <vehicle id="67_bus_53:0" type="pt_bus" depart="307.00" departLane="0" arrival="497.00">
        <route edges="302579018#0 302579018#1 907102747 762216476#0 112538828#0 112538828#1 112538828#2 112538828#3 112538828#6 243990688#0 168404659 663316135 46098088#0 46098088#1 908546756#1 417019353 511241905#0 7971500 813598084 7971499"/>
        <stop busStop="2506473215" duration="30.00"/>
    </vehicle>

    <vehicle id="84_bus_9:1" type="pt_bus" depart="323.00" departLane="0" arrival="508.00">
        <route edges="46098088#1 908546756#1 417019353 511241905#0 7971500 813598084 1289077480 7726294 43759728#2 1057894241#0 626418867#1 43759793#0 43759793#1 43759793#2 43759793#3 431767100#0 431767100#1 4346299#0 4346299#1 4346299#4 4346299#5 321307747 242547871 131431688#0"/>
        <stop busStop="2673249151" duration="30.00"/>
    </vehicle>

    <vehicle id="122_bus_20:0" type="pt_bus" depart="475.00" departLane="0" arrival="517.00">
        <route edges="813598084"/>
        <stop busStop="21968139" duration="30.00"/>
    </vehicle>

    <vehicle id="77_bus_6:0" type="pt_bus" depart="306.00" departLane="0" arrival="537.00">
        <route edges="7732078 70955486 1275422405 1275422411#0 1275422411#1 31262334#0 31262349#1 554357604#0 70955584#0 70955584#1 70955584#2 4328769 423638485 686213118#0 423232043 48345480#0 48345480#2 1275083958#0 82567675#0 82567675#3"/>
        <stop busStop="1493715148" duration="30.00"/>
    </vehicle>

    <vehicle id="75_bus_65:0" type="pt_bus" depart="300.00" departLane="0" arrival="539.00">
        <route edges="7732078 70955486 1275422405 1275422409 31262321#0 31262321#1 31262321#2 1275422412 907553665 4519456#2 168406442#1 49016411#0 -7972312#4 -7972312#3 -7972312#2 -7972312#1 -7972312#0 -31309326#4 -31309326#3 -31309326#2 -31309326#1 -689780380 -44885764#6 -44885764#5 -44885764#4 -44885764#3 -44885764#2 -44885764#1 -45316487#2 -45316487#0 -40933501#1 -40933501#0"/>
        <stop busStop="1493715148" duration="30.00"/>
    </vehicle>

    <vehicle id="132_train_C-7:0" type="pt_train" depart="522.00" departLane="0" arrival="553.00">
        <route edges="1067764157"/>
        <stop busStop="26080642" duration="30.00"/>
    </vehicle>

    <vehicle id="87_bus_M1:0" type="pt_bus" depart="331.00" departLane="0" arrival="558.00">
        <route edges="686216023 4328608 4328607 -41699453#2 -41699453#1 41699477#1 41699518#0 31262349#1 554357604#0 7642979#0 7642979#2 43626132 102865404#0 102865404#1 4328790#1 4328790#2 4328790#3 4328790#4 4328790#5 4328790#6 31261348#0 31261348#1 43759728#0 43759728#2 1057894241#0 626418867#1 1286414023 43759788 417019353 511241905#0 7971500 813598084"/>
        <stop busStop="8423406949" duration="30.00"/>
    </vehicle>

    <vehicle id="61_bus_50:0" type="pt_bus" depart="227.00" departLane="0" arrival="580.00">
        <route edges="40933501#0 40933501#1 45316487#0 45316487#1 44885764#1 44885764#2 44885764#3 44885764#4 44885764#5 44885764#6 689780380 31309326#0 31309326#2 31309326#3 31309326#4 7972312#0 7972312#1 7972312#2 7972312#3 7972312#4 -49016411#1 -168406442#2 7732076#0 7732076#1 41699477#1 41699518#0 31262349#1 554357604#0 7642979#0 7642979#2 556954611#0 7732078 429530691#0 4519453 406007906 1275419913#0 1275419913#1"/>
        <stop busStop="8423406967" duration="30.00"/>
    </vehicle>

    <vehicle id="80_bus_74:1" type="pt_bus" depart="318.00" departLane="0" arrival="588.00">
        <route edges="651525544#0 104799919#0 839411286#1 30993228#1 30993228#2 554359457 239499978#1 45757393 4487153 31053391 269291945#0 269291945#1 269291945#2 490391709#0 -1238944954 -155551743#2 -155551743#1 -155551743#0 -936883629 -423000381 -651613048#0 -43410312#1 -43410312#0 32597088 419119406#0 419119406#1 -651543114#1 804457302 46098085#0 46098085#1 4346299#0 4346299#1 4346299#4 4346299#5 321307747 242547871 131431688#0"/>
    </vehicle>

    <vehicle id="85_bus_C1:0" type="pt_bus" depart="326.00" departLane="0" arrival="591.00">
        <route edges="7648748 -1184617809 -31000487 -685984978#1 -26674010#1 -26674010#0 7732089#0 689777341 26673998 355939670 -49016394 -7648762#1 -7648762#0 7726327 627773366 4319471 43410332#0 1008751312 542325013#0 542325013#1"/>
        <stop busStop="-8473691223" duration="30.00"/>
    </vehicle>

    <vehicle id="86_bus_C2:0" type="pt_bus" depart="329.00" departLane="0" arrival="592.00">
        <route edges="4334161 43410327#0 26631680#1 388101134 7726328 7648762#0 7648762#1 49016394 7732088 7732086 -7732089#0 26674010#0 26674010#1 685984978#0 31000487 1184617809 130757787#2 1010800836"/>
    </vehicle>

    <vehicle id="79_bus_74:0" type="pt_bus" depart="317.00" departLane="0" arrival="596.00">
        <route edges="302579020#0 302579020#1 885687791 907102747 762216476#0 112538828#0 112538828#1 112538828#2 112538828#3 112538828#6 4328840 651543114#1 -419119406#1 -419119406#0 -32597088 43410312#0 43410312#1 651613048#0 423000381 936883629 155551743#0 155551743#1 155551743#2 1238944954 651533184#0 -335713716#0 -269291945#1 -269291945#0 45757392 -82280716#1 -82280716#0 7642939#0 7642939#1 7642939#2 7642939#3 7642939#4 7642939#5 7642939#7 -651525544#0"/>
        <stop busStop="3068279551" duration="30.00"/>
    </vehicle>

    <vehicle id="62_bus_50:1" type="pt_bus" depart="227.00" departLane="0" arrival="598.00">