<?xml version="1.0" encoding="UTF-8"?>

<!-- generated on 2024-04-11 19:46:20 by Eclipse SUMO sumo Version 1.19.0
<configuration xmlns:xsi="http://www.w3.org/2001/XMLSchema-instance" xsi:noNamespaceSchemaLocation="http://sumo.dlr.de/xsd/sumoConfiguration.xsd">

    <input>
        <net-file value="C:\Users\Jaime\Sumo\2024-04-11-19-46-06\osm.net.xml.gz"/>
        <route-files value="C:\Users\Jaime\Sumo\2024-04-11-19-46-06\trips.trips.xml"/>
        <additional-files value="C:\Users\Jaime\Sumo\2024-04-11-19-46-06\osm_stops.add.xml"/>
    </input>

    <output>
        <vehroute-output value="C:\Users\Jaime\Sumo\2024-04-11-19-46-06\vehroutes.xml"/>
        <stop-output value="C:\Users\Jaime\Sumo\2024-04-11-19-46-06\stopinfos.xml"/>
    </output>

    <time>
        <begin value="0.0"/>
    </time>

    <processing>
        <ignore-route-errors value="true"/>
    </processing>

    <routing>
        <device.rerouting.adaptation-interval value="0"/>
    </routing>

    <report>
        <aggregate-warnings value="5"/>
        <error-log value="C:\Users\Jaime\Sumo\2024-04-11-19-46-06\trips.trips.xml.errorlog"/>
        <no-step-log value="true"/>
    </report>

</configuration>
-->

<routes xmlns:xsi="http://www.w3.org/2001/XMLSchema-instance" xsi:noNamespaceSchemaLocation="http://sumo.dlr.de/xsd/routes_file.xsd">
    <vehicle id="0_train_MD_18061:0" type="pt_train" depart="0.00" departLane="0" arrival="90.00">
        <route edges="119181079#0 119181079#1"/>
        <stop busStop="1493565877" duration="30.00"/>
    </vehicle>

    <vehicle id="15_bus_545:1" type="pt_bus" depart="74.00" departLane="0" arrival="105.00">
        <route edges="511895834#0"/>
        <stop busStop="5006352934" duration="30.00"/>
    </vehicle>

    <vehicle id="28_bus_146:0" type="pt_bus" depart="66.00" departLane="0" arrival="113.00">
        <route edges="269291945#2"/>
        <stop busStop="3428239936" duration="30.00"/>
    </vehicle>

    <vehicle id="14_bus_545:0" type="pt_bus" depart="38.00" departLane="0" arrival="136.00">
        <route edges="511895834#0 511895834#1 587589755#0 7642952#2 -293723007 -198644582 -293723001 -293722997 45588309#0 45588309#2 45588309#3 380275223 380275226 116581860#0 116581860#1"/>
        <stop busStop="5006352934" duration="30.00"/>
    </vehicle>

    <vehicle id="16_train_RE_18009:0" type="pt_train" depart="42.00" departLane="0" arrival="157.00">
        <route edges="119181079#0 119181079#1"/>
        <stop busStop="1493565877" duration="30.00"/>
    </vehicle>

    <vehicle id="24_bus_133:0" type="pt_bus" depart="58.00" departLane="0" arrival="175.00">
        <route edges="554359457 239499978#1 -82280716#1 -82280716#0 7642939#0 7642939#1 7642939#2 7642939#3 7642939#4 7642939#5 7642939#7 -651525544#0 -4328841#5 545103682#0 545103682#1 238829520#0 238829520#1"/>
        <stop busStop="2472773304" duration="30.00"/>
    </vehicle>

    <vehicle id="25_bus_133:1" type="pt_bus" depart="59.00" departLane="1" arrival="184.00">
        <route edges="238829521#0 238829521#2 545103684#0 545103684#1 4328841#1 651525544#0 104799919#0 839411286#1 30993228#1 30993228#2"/>
    </vehicle>

    <vehicle id="13_bus_523:0" type="pt_bus" depart="35.00" departLane="0" arrival="186.00">
        <route edges="941581922 941560401 941581923 293717620 251971165"/>
        <stop busStop="8770134602" duration="30.00"/>
    </vehicle>

    <vehicle id="1_bus_581:0" type="pt_bus" depart="3.00" departLane="0" arrival="190.00">
        <route edges="941560393 941581922 941560401 941581923 293717620 251971165"/>
        <stop busStop="8719540977" duration="30.00"/>
    </vehicle>

    <vehicle id="2_bus_581:1" type="pt_bus" depart="6.00" departLane="0" arrival="200.00">
        <route edges="28682154 28682317 45085114 941560395 941560393"/>
        <stop busStop="8719417517" duration="30.00"/>
    </vehicle>

    <vehicle id="3_bus_581:2" type="pt_bus" depart="12.00" departLane="0" arrival="204.00">
        <route edges="28682154 28682317 45085114 941560395 941560393"/>
        <stop busStop="8719417517" duration="30.00"/>
    </vehicle>

    <vehicle id="4_bus_581:3" type="pt_bus" depart="15.00" departLane="0" arrival="208.00">
        <route edges="941560393 941581922 941560401 941581923 293717620 251971165"/>
        <stop busStop="8719540977" duration="30.00"/>
    </vehicle>

    <vehicle id="8_bus_551:0" type="pt_bus" depart="27.00" departLane="0" arrival="214.00">
        <route edges="941560394#1 941560405#1 45085212 941581923 293717620 251971165"/>
        <stop busStop="8719540982" duration="30.00"/>
    </vehicle>

    <vehicle id="30_bus_147:0" type="pt_bus" depart="77.00" departLane="0" arrival="215.00">
        <route edges="422999624#0 422999624#1 506195848#0 506195848#1 293712003#0 293712003#1 293712003#3 293712003#4 293712003#5 30993228#1 30993228#2 554359457 239499978#1 45757393 4487153 31053391 269291945#0 269291945#1 269291945#2"/>
    </vehicle>

    <vehicle id="75_bus_39:0" type="pt_bus" depart="178.00" departLane="0" arrival="219.00">
        <route edges="27926837#2"/>
        <stop busStop="10814542230" duration="30.00"/>
    </vehicle>

    <vehicle id="17_train_MD_18063:0" type="pt_train" depart="75.00" departLane="0" arrival="224.00">
        <route edges="119181079#0 119181079#1"/>
        <stop busStop="1493565877" duration="30.00"/>
    </vehicle>

    <vehicle id="9_bus_551:1" type="pt_bus" depart="28.00" departLane="0" arrival="225.00">
        <route edges="28682154 28682317 45085114 941560395 941560393"/>
        <stop busStop="8719417518" duration="30.00"/>
    </vehicle>

    <vehicle id="12_bus_551:4" type="pt_bus" depart="34.00" departLane="0" arrival="229.00">
        <route edges="941560394#1 941560405#1 45085212 941581923 293717620 251971165"/>
        <stop busStop="8719540982" duration="30.00"/>
    </vehicle>

    <vehicle id="57_bus_28:0" type="pt_bus" depart="138.00" departLane="0" arrival="234.00">
        <route edges="179267058 43407376 29975003 809156092#0 809156092#1 321307754#0 461144181 554357601"/>
        <stop busStop="26485800" duration="30.00"/>
    </vehicle>

    <vehicle id="31_bus_147:1" type="pt_bus" depart="104.00" departLane="0" arrival="240.00">
        <route edges="269291945#2 -335713716#0 -269291945#1 -269291945#0 45757392 -239499978#1 -239499978#0 -30993228#2 -30993228#1 -293712003#5 -293712003#4 -293712003#3 -293712003#2 -293712003#0 -506195848#1 -506195848#0 -422999624#2 -422999624#0"/>
        <stop busStop="5321927322" duration="30.00"/>
    </vehicle>

    <vehicle id="21_bus_495:1" type="pt_bus" depart="54.00" departLane="0" arrival="246.00">
        <route edges="941560393 941581922 941560401 941581923 293717620 251971165"/>
        <stop busStop="8719540975" duration="30.00"/>
    </vehicle>

    <vehicle id="58_bus_28:1" type="pt_bus" depart="139.00" departLane="0" arrival="252.00">
        <route edges="554357601 910599751 43405576#0 43405576#1 43405578#0 131443349 43405579#0 43405579#2 43405580#0 43405580#1 29419688 437147506#1 44360624#1 43405581#0 43405581#1 437147507"/>
        <stop busStop="26485800" duration="30.00"/>
    </vehicle>

    <vehicle id="10_bus_551:2" type="pt_bus" depart="34.00" departLane="0" arrival="264.00">
        <route edges="28682154 28682317 45085114 941560395 941560393"/>
        <stop busStop="8719417518" duration="30.00"/>
    </vehicle>

    <vehicle id="41_bus_17:1" type="pt_bus" depart="119.00" departLane="0" arrival="267.00">
        <route edges="553501872 4263086#0 41699453#1 41699453#2 398751337#0 398751337#1 398751337#3 690824245 130468268#1 -909029029#2 -909029029#0 -4346292#7 -4346292#6 -4346292#5 -4346292#4 -4346292#1"/>
        <stop busStop="5342725022" duration="30.00"/>
    </vehicle>

    <vehicle id="40_bus_17:0" type="pt_bus" depart="114.00" departLane="0" arrival="279.00">
        <route edges="4346292#0 4346292#3 4346292#5 4346292#6 4346292#7 4346292#12 909029029#1 -130468268#1 -690824245 -398751337#3 -398751337#2 -398751337#0 -41699453#2 -41699453#1 41699477#1 554505594 7732075 553501872"/>
        <stop busStop="8422641941" duration="30.00"/>
    </vehicle>

    <vehicle id="80_bus_44:1" type="pt_bus" depart="189.00" departLane="1" arrival="288.00">
        <route edges="238829521#0 238829521#2 545103684#0 545103684#1 4328841#1 651525544#0 104799919#0 839411286#1 30993228#1 30993228#2 554359457"/>
    </vehicle>

    <vehicle id="70_bus_35:1" type="pt_bus" depart="160.00" departLane="0" arrival="299.00">
        <route edges="554505594 41699518#0 31262320#1 31262320#2 4328609 4328605#0 4328605#1 398751337#3 690824245 130468268#1 -909029029#2 -909029029#0 -4346292#7 -4346292#6 -4346292#5 -4346292#4 -4346292#1"/>
        <stop busStop="5351138581" duration="30.00"/>
    </vehicle>

    <vehicle id="11_bus_551:3" type="pt_bus" depart="39.00" departLane="0" arrival="301.00">
        <route edges="28682154 28682317 45085114 941560395 941560393"/>
        <stop busStop="8719417518" duration="30.00"/>
    </vehicle>

    <vehicle id="42_bus_18:0" type="pt_bus" depart="120.00" departLane="0" arrival="302.00">
        <route edges="7732075 553501872 4263086#0 41699453#1 41699453#2 398751337#0 398751337#1 398751337#3 690824245 130468268#1 -909029029#2 -909029029#0 -4346292#7 -4346292#6 -4346292#5 -4346292#4 -4346292#1"/>
        <stop busStop="1437056478" duration="30.00"/>
    </vehicle>

    <vehicle id="71_bus_36:0" type="pt_bus" depart="165.00" departLane="0" arrival="309.00">
        <route edges="44704759#0 44704759#1 44704759#2 44704759#3 44704760#0 44704760#1 44704760#2 44704760#3 44704760#4 45588309#0 45588309#2 45588309#3 380275223 380275226 116581860#0 116581860#1"/>
        <stop busStop="332054667" duration="30.00"/>
    </vehicle>

    <vehicle id="54_bus_26:1" type="pt_bus" depart="136.00" departLane="0" arrival="316.00">
        <route edges="554357604#0 70955584#0 70955584#1 70955584#2 4328769 423638485 686213118 423232043 48345480#0 48345480#1 320668245#0 82567675 82567680#0 82567676 82567669 1126367770 48345824 1225399704#0 1225399704#2"/>
        <stop busStop="5350038443" duration="30.00"/>
    </vehicle>

    <vehicle id="43_bus_18:1" type="pt_bus" depart="125.00" departLane="0" arrival="324.00">
        <route edges="4346292#0 4346292#3 4346292#5 4346292#6 4346292#7 4346292#12 909029029#1 -130468268#1 -690824245 -398751337#3 -398751337#2 -398751337#0 -41699453#2 -41699453#1 41699477#1 554505594 7732075"/>
        <stop busStop="8422641941" duration="30.00"/>
    </vehicle>

    <vehicle id="64_bus_32:1" type="pt_bus" depart="158.00" departLane="0" arrival="335.00">
        <route edges="43797348#0 659404748 48345815#0 48345815#3 -1126367770 -82567669 -82567676 -82567680#2 -82567675 -320668245#0 48345473#0 48345473#2 686213116 423231391#0 423231391#4 423231391#5 423231391#6 685983423 30650268#0 7732078"/>
        <stop busStop="1416248982" duration="30.00"/>
    </vehicle>

    <vehicle id="20_bus_495:0" type="pt_bus" depart="52.00" departLane="0" arrival="338.00">
        <route edges="28682154 28682317 45085114 941560395 941560393"/>
        <stop busStop="8719540975" duration="30.00"/>
    </vehicle>

    <vehicle id="22_bus_495(a):0" type="pt_bus" depart="59.00" departLane="0" arrival="341.00">
        <route edges="941560393 941581922 941560401 941581923 293717620 251971165"/>
        <stop busStop="8719540975" duration="30.00"/>
    </vehicle>

    <vehicle id="79_bus_44:0" type="pt_bus" depart="188.00" departLane="0" arrival="344.00">
        <route edges="554359457 239499978#1 -82280716#1 -82280716#0 7642939#0 7642939#1 7642939#2 7642939#3 7642939#4 7642939#5 7642939#7 -651525544#0 -4328841#5 545103682#0 545103682#1 238829520#0 238829520#1"/>
        <stop busStop="5350055328" duration="30.00"/>
    </vehicle>

    <vehicle id="6_train_C-8a:0" type="pt_train" depart="17.00" departLane="0" arrival="345.00">
        <route edges="4812007 1037434514 1037434512"/>
        <stop busStop="4999319331" duration="30.00"/>
    </vehicle>

    <vehicle id="5_train_C-4:0" type="pt_train" depart="15.00" departLane="0" arrival="346.00">
        <route edges="695991680 695991678"/>
        <stop busStop="3660257614" duration="30.00"/>
    </vehicle>

    <vehicle id="7_train_C-8a:1" type="pt_train" depart="19.00" departLane="0" arrival="350.00">
        <route edges="1037434513 1037434515 197483308"/>
        <stop busStop="4999319330" duration="30.00"/>
    </vehicle>

    <vehicle id="63_bus_32:0" type="pt_bus" depart="157.00" departLane="0" arrival="360.00">
        <route edges="7732078 70955486#0 70955486#1 31262334#0 31262334#1 31262334#2 31262349#1 554357604#0 70955584#0 70955584#1 70955584#2 4328769 423638485 686213118 423232043 48345480#0 48345480#1 320668245#0 82567675 82567680#0 82567676 82567669 1126367770 48345824 1225399704#0 1225399704#2"/>
        <stop busStop="1493715148" duration="30.00"/>
    </vehicle>

    <vehicle id="96_bus_60:1" type="pt_bus" depart="253.00" departLane="0" arrival="362.00">
        <route edges="4346292#0 4346292#3 4346292#5 4346292#6 4346292#7 4346292#12"/>
        <stop busStop="8440470099" duration="30.00"/>
    </vehicle>

    <vehicle id="72_bus_36:1" type="pt_bus" depart="166.00" departLane="0" arrival="363.00">
        <route edges="-116581860#1 -116581860#0 -380275226 -380275223 -45588309#4 -45588309#2 -45588309#1 1054368317#1 40933501#0 40933501#1 32480293#1 32480293#2 32480293#3 32480293#4 32480293#5 32480293#6 32480293#7"/>
        <stop busStop="8423406977" duration="30.00"/>
    </vehicle>

    <vehicle id="53_bus_26:0" type="pt_bus" depart="134.00" departLane="0" arrival="364.00">
        <route edges="43797348#0 659404748 48345815#0 48345815#3 -1126367770 -82567669 -82567676 -82567680#2 -82567675 -320668245#0 48345473#0 48345473#2 686213116 423231391#0 423231391#4 423231391#5 423231391#6 685983423 30650268#0 66835311#0 70955486#0 70955486#1 31262334#0 31262334#1 31262334#2 31262349#1"/>
        <stop busStop="1416248982" duration="30.00"/>
    </vehicle>

    <vehicle id="69_bus_35:0" type="pt_bus" depart="160.00" departLane="0" arrival="367.00">
        <route edges="4346292#0 4346292#3 4346292#5 4346292#6 4346292#7 4346292#12 909029029#1 -130468268#1 -690824245 -398751337#3 -398751337#2 -398751337#0 -41699453#2 -41699453#1 41699477#1"/>
        <stop busStop="8422641941" duration="30.00"/>
    </vehicle>

    <vehicle id="45_bus_19:1" type="pt_bus" depart="127.00" departLane="0" arrival="368.00">
        <route edges="112538800#0 807334403#0 807334403#1 807334403#3 807334403#4 807334403#5 807334403#7 910599751 43405576#0 43405576#1 43405578#0 131443349 29974669#0 29974669#2 363631641#0 317302446 553113575#0 553113575#1 317302445#0 317302445#1 317302445#2 317302445#4 317302445#5 317302445#6 727972600#0 727972600#3 29974652#0 29974652#1 685989650 685989649 685989646 373776805#0 373776805#1 373776805#3"/>
        <stop busStop="5385241329" duration="30.00"/>
    </vehicle>

    <vehicle id="50_bus_23:1" type="pt_bus" depart="132.00" departLane="0" arrival="368.00">
        <route edges="7732075 553501872 4263086#0 41699453#1 41699453#2 398751337#0 398751337#1 398751337#3 690824245 130468268#1 -909029029#2 -909029029#0 -4346292#7 -4346292#6 -4346292#5 -4346292#4 -4346292#1"/>
        <stop busStop="1437056478" duration="30.00"/>
    </vehicle>

    <vehicle id="49_bus_23:0" type="pt_bus" depart="131.00" departLane="0" arrival="378.00">
        <route edges="4346292#0 4346292#3 4346292#5 4346292#6 4346292#7 4346292#12 909029029#1 -130468268#1 -690824245 -398751337#3 -398751337#2 -398751337#0 -41699453#2 -41699453#1 41699477#1 554505594 7732075"/>
        <stop busStop="8422641941" duration="30.00"/>
    </vehicle>

    <vehicle id="23_bus_495(a):1" type="pt_bus" depart="58.00" departLane="0" arrival="381.00">
        <route edges="28682154 28682317 45085114 941560395 941560393"/>
        <stop busStop="8719540975" duration="30.00"/>
    </vehicle>

    <vehicle id="37_bus_150:1" type="pt_bus" depart="104.00" departLane="0" arrival="400.00">
        <route edges="112538817#0 112538817#2 44737269#0 44737269#1 458778826#0 458778826#1 458778826#2 243496118#1 907102749 907102748#0 907102748#1 131443348#0 4349010 511895636 1260545323#0 1260545323#1 1260545324 7971496#0 7971496#1 7971496#2 7971496#3 7971496#4 43759728#0 43759728#2 1057894241#0"/>
        <stop busStop="8427025374" duration="30.00"/>
    </vehicle>

    <vehicle id="62_bus_31:1" type="pt_bus" depart="149.00" departLane="0" arrival="400.00">
        <route edges="553501872 4519456#1 44614882#1 928730847 49016411#0 -7972312#4 -7972312#3 -7972312#2 -7972312#1 -7972312#0 -31309326#4 -31309326#3 -31309326#2 -31309326#1 -689780380 -44885764#6 -44885764#5 -44885764#4 -44885764#3 -44885764#2 -44885764#1 -45316487#2 -45316487#0 -40933501#1 -40933501#0 -1054368317#1 45588309#0 45588309#2 45588309#3 380275223 380275226 116581860#0 116581860#1"/>
        <stop busStop="8427149777" duration="30.00"/>
    </vehicle>

    <vehicle id="95_bus_60:0" type="pt_bus" depart="241.00" departLane="0" arrival="417.00">
        <route edges="1137958523#0 7972314#0 7972314#2 387437566 387437565 7732894#0 7732894#1 7732894#3 896274305 5927085#0 5927797#1 5927797#2 -131451861 130468268#1 -909029029#2 -909029029#0"/>
        <stop busStop="5970484986" duration="30.00"/>
    </vehicle>

    <vehicle id="33_bus_148:1" type="pt_bus" depart="92.00" departLane="0" arrival="418.00">
        <route edges="1137958523#0 7972314#0 7972314#2 387437566 43410304 7732896 1137958525#0 1137958525#1 1137958526#0 387848379#1 1137958527 7726327 627773366 4319471 43410332#0 1008751312 542325013#0 542325013#1 4334160#0 4334160#1 4487131#1 4487131#2 4487131#3 363605884#1 363605884#2 363605884#3 4487154#0 4487154#1 82280716#0 82280716#1 45757393 4487153 31053391 269291945#0 269291945#1 269291945#2"/>
        <stop busStop="5970484986" duration="30.00"/>
    </vehicle>

    <vehicle id="19_subway_L10:1" type="pt_subway" depart="51.00" departLane="0" arrival="426.00">
        <route edges="1054025303"/>
        <stop busStop="5310093882" duration="30.00"/>
        <stop busStop="5310093880" duration="30.00"/>
        <stop busStop="5310093878" duration="30.00"/>
        <stop busStop="5310093877" duration="30.00"/>
        <stop busStop="7559826150" duration="30.00"/>
    </vehicle>

    <vehicle id="44_bus_19:0" type="pt_bus" depart="126.00" departLane="0" arrival="429.00">
        <route edges="685989648#0 685989648#2 685989648#3 685989647 685989645 29974650#0 29974650#1 29974650#2 262459137#0 262459137#1 262459137#2 262459137#3 285592559#0 285592559#2 285582145#1 285582145#3 285582145#4 285582145#5 285582145#6 285582145#7 44360625 43405579#2 43405580#0 43405580#1 29419688 437147506#1 44360624#1 4526341#0 4526341#1 864841823 807334397#1 807334397#2 807334397#3 807334397#4 807334397#6 554230311#0 554230311#1"/>
        <stop busStop="8441342341" duration="30.00"/>
    </vehicle>

    <vehicle id="26_bus_138:0" type="pt_bus" depart="60.00" departLane="2" arrival="432.00">
        <route edges="-116581860#1 -116581860#0 -380275226 -380275223 -45588309#4 -45588309#2 -45588309#1 293722997 293723001 198644582 293723007 7642935 293723002#0 4308591 31000691#0 71808949#0 71808949#1 71808949#3 44535822 44535820 542325013#0 542325013#1 4334160#0 4334160#1 545103682#0 545103682#1 238829520#0 238829520#1"/>
        <stop busStop="8235796756" duration="30.00"/>
    </vehicle>

    <vehicle id="102_bus_6:1" type="pt_bus" depart="258.00" departLane="0" arrival="443.00">
        <route edges="43797348#0 659404748 48345815#0 48345815#3 -1126367770 -82567669 -82567676 -82567680#2 -82567675 -320668245#0 48345473#0 48345473#2 686213116 423231391#0 423231391#4 423231391#5 423231391#6 685983423 30650268#0 7732078"/>
        <stop busStop="1416248982" duration="30.00"/>
    </vehicle>

    <vehicle id="38_bus_15:0" type="pt_bus" depart="107.00" departLane="1" arrival="444.00">
        <route edges="807334396#0 1104089484 43407376 29975003 809156092#0 809156092#1 321307754#0 461144181 554357601 910599751 43405576#0 43405576#1 37352456#0 37352456#2 37352456#3 321307744#0 321307744#1 112538808 762216477 131443347#0 4346298#0 112538828#0 112538828#1 112538828#2 112538828#3 112538828#4 243990688#0 168404659 663316135 46098088#0 46098088#1 431767099#2 261728552#0 417019353#0 417019353#1 43410310 7971500#2 813598084"/>
        <stop busStop="8423256637" duration="30.00"/>
    </vehicle>

    <vehicle id="65_bus_33:0" type="pt_bus" depart="158.00" departLane="2" arrival="447.00">
        <route edges="-116581860#1 -116581860#0 -380275226 -380275223 -45588309#4 -45588309#2 -45588309#1 293722997 293723001 198644582 293723007 7642935 293723002#0 587589743 44535825#0 44535826 45084908#0 119181069 941581922"/>
        <stop busStop="8235796756" duration="30.00"/>
    </vehicle>

    <vehicle id="32_bus_148:0" type="pt_bus" depart="110.00" departLane="0" arrival="456.00">
        <route edges="269291945#2 -335713716#0 -269291945#1 -269291945#0 335717550 4487153 335717551#0 7971933 17760817 7971930 31021778#0 31021778#1 31021779#5 31021779#6 17760812#0 17760812#1 17760812#2 7971935 7971921#0 7971922 31053363#0 31053363#1 686215410 7988350 49016413 41600137#0 41600137#1 49016408#0 49016408#1 49016408#2 -928730847 4519457#0 4519457#1 4519457#2 4519457#3 4519457#4 -5927085#0 -896274305 -7732894#3 -7732894#1 -7732894#0 387437564 970861564 43410305 43410306 1137958511 1137958513 1137958515 1137958516#1"/>
        <stop busStop="8440634409" duration="30.00"/>
    </vehicle>

    <vehicle id="27_bus_138:1" type="pt_bus" depart="65.00" departLane="0" arrival="459.00">
        <route edges="238829521#0 238829521#2 548526337#0 548526337#1 548888142 4334161 43410327#0 71808951 4308590#0 4308590#3 4308590#4 71808941 31000689#0 31000689#2 31000689#3 44535826 4086811#0 511981739 511895834#0 511895834#1 587589755#0 7642952#2 -293723007 -198644582 -293723001 -293722997 45588309#0 45588309#2 45588309#3 380275223 380275226 116581860#0 116581860#1"/>
    </vehicle>

    <vehicle id="61_bus_31:0" type="pt_bus" depart="149.00" departLane="0" arrival="463.00">
        <route edges="-116581860#1 -116581860#0 -380275226 -380275223 -45588309#4 -45588309#2 -45588309#1 1054368317#1 40933501#0 40933501#1 45316487#0 45316487#1 44885764#1 44885764#2 44885764#3 44885764#4 44885764#5 44885764#6 689780380 31309326#0 31309326#2 31309326#3 31309326#4 7972312#0 7972312#1 7972312#2 7972312#3 7972312#4 -49016411#1 -928730847 -168406442 7732076 928730848#0 41699477#1 554505594 7732075 553501872"/>
        <stop busStop="8423406967" duration="30.00"/>
    </vehicle>

    <vehicle id="39_bus_15:1" type="pt_bus" depart="114.00" departLane="0" arrival="472.00">
        <route edges="7971499 30676408 31261348#0 31261348#1 43759728#0 43759728#2 1057894241#0 511895814#1 626418867#0 626418867#1 43759793#0 43759793#1 43759793#3 431767100#0 431767100#1 431767100#2 4346299#0 4346299#1 4346299#2 4346299#3 321307747 242547871 131431688#0 37352455 43759849 420753262 421575788#0 421575788#1 626418868 131443349 43405579#0 43405579#2 43405580#0 43405580#1 29419688 437147506#1 44360624#1 43405581#0 43405581#1 43407377 1117997094#0"/>
        <stop busStop="21968139" duration="30.00"/>
    </vehicle>

    <vehicle id="51_bus_25:0" type="pt_bus" depart="132.00" departLane="0" arrival="481.00">
        <route edges="-23594877#4 4487127#2"/>
    </vehicle>

    <vehicle id="155_bus_N6:0" type="pt_bus" depart="401.00" departLane="0" arrival="488.00">
        <route edges="910599752 4348612#1 437147506#1 44360624#1 43405581#0 43405581#1 437147507"/>
        <stop busStop="3964131000" duration="30.00"/>
    </vehicle>

    <vehicle id="67_bus_34:0" type="pt_bus" depart="159.00" departLane="0" arrival="490.00">
        <route edges="44288719#1 1260545323#0 1260545323#1 1260545324 44288721#1 44288721#2 262951802#0 30674611 686214706#0 686214706#1 686214706#2 686214706#3 262951801#0 262951801#1 262951801#2 262951801#3 262951801#5 659404749#0 43797349"/>
        <stop busStop="5342725021" duration="30.00"/>
    </vehicle>

    <vehicle id="36_bus_150:0" type="pt_bus" depart="99.00" departLane="0" arrival="494.00">
        <route edges="1057894241#0 511895814#1 626418867#0 626418867#1 43759793#0 43759793#1 43759793#3 431767100#0 431767100#1 431767100#2 4346299#0 4346299#1 4346299#2 4346299#3 321307747 242547871 131431688#0 37352455 27396510#0 554230296 43759853#0 43759853#1 252387586#1 252387586#2 252387586#3 252387586#4 252387586#5 252387586#6 44737268#0 44737268#1"/>
        <stop busStop="5006352930" duration="30.00"/>
    </vehicle>

    <vehicle id="156_bus_N6:1" type="pt_bus" depart="404.00" departLane="0" arrival="504.00">
        <route edges="807334395 1104089484 43407376 29975003 809156092#0 809156092#1 321307754#0 461144181 554357601 910599751"/>
        <stop busStop="8423256637" duration="30.00"/>
    </vehicle>

    <vehicle id="101_bus_6:0" type="pt_bus" depart="291.00" departLane="0" arrival="509.00">
        <route edges="7732078 70955486#0 70955486#1 31262334#0 31262334#1 31262334#2 31262349#1 554357604#0 70955584#0 70955584#1 70955584#2 4328769 423638485 686213118 423232043 48345480#0 48345480#1 320668245#0 82567675 82567680#0 82567676 82567669 1126367770 48345824 1225399704#0 1225399704#2"/>
        <stop busStop="1493715148" duration="30.00"/>
    </vehicle>

    <vehicle id="78_bus_3:1" type="pt_bus" depart="187.00" departLane="0" arrival="529.00">
        <route edges="422999624#0 422999624#1 506195848#0 506195848#1 293712003#0 293712003#1 293712003#3 293712003#4 293712003#5 30993228#1 30993228#2 554359457 239499978#1 45757393 4487153 335717551#0 7971933 17760817 7971930 31021778#0 31021778#1 31021779#5 31021779#6 17760812#0 17760812#1 17760812#2 7971935 7971921#0 7971922 31053363#0 31053363#1 686215410 7988350 49016413 41600137#0 41600137#1 49016408#0 49016408#1 49016408#2 -928730847 4519457#0 4519457#1 4519457#2 4519457#3 4519457#4 -5927085#0 -896274305 -7732894#3 -7732894#1 -7732894#0 387437564 970861564 43410305 43410306 1137958511 1137958513 1137958515 1137958516#1"/>
    </vehicle>

    <vehicle id="87_bus_51:0" type="pt_bus" depart="222.00" departLane="0" arrival="551.00">
        <route edges="112538800#0 807334403#0 807334403#1 807334403#3 807334403#4 807334403#5 807334403#7 910599751 43405576#0 43405576#1 37352456#0 37352456#2 37352456#3 321307744#0 321307744#1 112538808 762216477 131443347#0 4346298#0 112538828#0 112538828#1 112538828#2 112538828#3 112538828#4 243990688#0 168404659 663316135 46098088#0 46098088#1 431767099#2 261728552#0 417019353#0 417019353#1 984759713#1"/>
        <stop busStop="5385241329" duration="30.00"/>
    </vehicle>

    <vehicle id="89_bus_52:0" type="pt_bus" depart="227.00" departLane="1" arrival="556.00">
        <route edges="807334396#0 1104089484 43407376 29975003 809156092#0 809156092#1 321307754#0 461144181 554357601 910599751 43405576#0 43405576#1 37352456#0 37352456#2 37352456#3 321307744#0 321307744#1 112538808 762216477 131443347#0 4346298#0 112538828#0 112538828#1 112538828#2 112538828#3 112538828#4 243990688#0 168404659 663316135 46098088#0 46098088#1 431767099#2 261728552#0 417019353#0 417019353#1 43410310 7971500#2 813598084 7971499"/>
        <stop busStop="2383701841" duration="30.00"/>
    </vehicle>

    <vehicle id="99_bus_65:0" type="pt_bus" depart="253.00" departLane="0" arrival="556.00">
        <route edges="7732078 429530691#0 4519453 406007906#0 406007906#1 34095411#0 34095411#1 34095411#2 49016415 66833793#0 66833793#1 66833793#2 66833793#3 32044942#0 32044942#1 4519456#1 44614882#1 928730847 49016411#0 -7972312#4 -7972312#3 -7972312#2 -7972312#1 -7972312#0 -31309326#4 -31309326#3 -31309326#2 -31309326#1 -689780380 -44885764#6 -44885764#5 -44885764#4 -44885764#3 -44885764#2 -44885764#1 -45316487#2 -45316487#0 -40933501#1 -40933501#0 -1054368317#1 45588309#0 45588309#2 45588309#3 380275223 380275226 116581860#0 116581860#1"/>
        <stop busStop="1493715148" duration="30.00"/>
    </vehicle>

    <vehicle id="86_bus_50:1" type="pt_bus" depart="218.00" departLane="0" arrival="561.00">
        <route edges="406007906#1 34095411#0 34095411#1 34095411#2 49016415 66833793#0 66833793#1 66833793#2 66833793#3 32044942#0 32044942#1 4519456#1 44614882#1 928730847 49016411#0 -7972312#4 -7972312#3 -7972312#2 -7972312#1 -7972312#0 -31309326#4 -31309326#3 -31309326#2 -31309326#1 -689780380 -44885764#6 -44885764#5 -44885764#4 -44885764#3 -44885764#2 -44885764#1 -45316487#2 -45316487#0 32480293#1 32480293#2 32480293#3 32480293#4 32480293#5 32480293#6 32480293#7"/>
        <stop busStop="8423406988" duration="30.00"/>
    </vehicle>

    <vehicle id="98_bus_62:1" type="pt_bus" depart="253.00" departLane="0" arrival="568.00">
        <route edges="44704759#0 44704759#1 44704759#2 44704759#3 44704760#0 44704760#1 44704760#2 44704760#3 44704760#4 293722997 293723001 198644582 293723007 7642935 293723002#0 4308591 31000691#0 71808949#0 71808949#1 71808949#3 44535822 673102680 26631682 762649989#0 762649989#1 854461432"/>
        <stop busStop="332054667" duration="30.00"/>
    </vehicle>

    <vehicle id="90_bus_52:1" type="pt_bus" depart="227.00" departLane="0" arrival="591.00">
        <route edges="7971499 30676408 31261348#0 31261348#1 43759728#0 43759728#2 1057894241#0 511895814#1 626418867#0 626418867#1 43759793#0 43759793#1 43759793#3 431767100#0 431767100#1 431767100#2 4346299#0 4346299#1 4346299#2 4346299#3 321307747 242547871 131431688#0 37352455 43759849 420753262 421575788#0 421575788#1 626418868 131443349 43405579#0 43405579#2 43405580#0 43405580#1 29419688 437147506#1 44360624#1 43405581#0 43405581#1 43407377 1117997094#0"/>
        <stop busStop="5960796496" duration="30.00"/>
    </vehicle>

    <vehicle id="122_bus_N13:1" type="pt_bus" depart="322.00" departLane="0" arrival="594.00">
        <route edges="43797350 302580498#0 302580498#1 302580498#2 302580498#3 302580498#5 302580498#6 562027284#1 302580240#0 302580240#1 243991597"/>