<?xml version="1.0" encoding="UTF-8"?>

<!-- generated on 2024-07-01 21:01:42 by Eclipse SUMO sumo Version 1.19.0
<configuration xmlns:xsi="http://www.w3.org/2001/XMLSchema-instance" xsi:noNamespaceSchemaLocation="http://sumo.dlr.de/xsd/sumoConfiguration.xsd">

    <input>
        <net-file value="C:\Users\Jaime\Sumo\2024-07-01-21-01-21\osm.net.xml.gz"/>
        <route-files value="C:\Users\Jaime\Sumo\2024-07-01-21-01-21\trips.trips.xml"/>
        <additional-files value="C:\Users\Jaime\Sumo\2024-07-01-21-01-21\osm_stops.add.xml"/>
    </input>

    <output>
        <vehroute-output value="C:\Users\Jaime\Sumo\2024-07-01-21-01-21\vehroutes.xml"/>
        <stop-output value="C:\Users\Jaime\Sumo\2024-07-01-21-01-21\stopinfos.xml"/>
    </output>

    <time>
        <begin value="0.0"/>
    </time>

    <processing>
        <ignore-route-errors value="true"/>
    </processing>

    <routing>
        <device.rerouting.adaptation-interval value="0"/>
    </routing>

    <report>
        <aggregate-warnings value="5"/>
        <error-log value="C:\Users\Jaime\Sumo\2024-07-01-21-01-21\trips.trips.xml.errorlog"/>
        <no-step-log value="true"/>
    </report>

</configuration>
-->

<routes xmlns:xsi="http://www.w3.org/2001/XMLSchema-instance" xsi:noNamespaceSchemaLocation="http://sumo.dlr.de/xsd/routes_file.xsd">
    <vehicle id="7_bus_100:0" type="pt_bus" depart="19.00" departLane="0" arrival="69.00">
        <route edges="126304603#2"/>
        <stop busStop="823781719" duration="30.00"/>
    </vehicle>

    <vehicle id="3_train_R17:1" type="pt_train" depart="11.00" departLane="0" arrival="75.00">
        <route edges="216952581"/>
        <stop busStop="7215417857" duration="30.00"/>
    </vehicle>

    <vehicle id="2_train_R17:0" type="pt_train" depart="6.00" departLane="0" arrival="102.00">
        <route edges="217122022"/>
        <stop busStop="7215417855" duration="30.00"/>
    </vehicle>

    <vehicle id="25_subway_L6:0" type="pt_subway" depart="93.00" departLane="0" arrival="124.00">
        <route edges="363139234"/>
        <stop busStop="3673333976" duration="30.00"/>
    </vehicle>

    <vehicle id="9_train_34:0" type="pt_train" depart="75.00" departLane="0" arrival="139.00">
        <route edges="216952581"/>
        <stop busStop="7215417857" duration="30.00"/>
    </vehicle>

    <vehicle id="26_subway_L7:0" type="pt_subway" depart="98.00" departLane="0" arrival="166.00">
        <route edges="867668762 867668756 363139235 867668752 867668760 867668775"/>
        <stop busStop="3673333977" duration="30.00"/>
    </vehicle>

    <vehicle id="10_train_34:1" type="pt_train" depart="34.00" departLane="0" arrival="169.00">
        <route edges="217122022"/>
        <stop busStop="7215417855" duration="30.00"/>
    </vehicle>

    <vehicle id="33_bus_39:0" type="pt_bus" depart="127.00" departLane="0" arrival="180.00">
        <route edges="68506233#0 20042722#1 20475905#2"/>
        <stop busStop="6123166500" duration="30.00"/>
    </vehicle>

    <vehicle id="39_bus_N40:0" type="pt_bus" depart="134.00" departLane="0" arrival="190.00">
        <route edges="542956873"/>
        <stop busStop="1966472090" duration="30.00"/>
    </vehicle>

    <vehicle id="52_subway_L7:1" type="pt_subway" depart="165.00" departLane="0" arrival="196.00">
        <route edges="867668762"/>
        <stop busStop="3673333977" duration="30.00"/>
    </vehicle>

    <vehicle id="29_train_R2Sud:0" type="pt_train" depart="139.00" departLane="0" arrival="203.00">
        <route edges="216952581"/>
        <stop busStop="7215417857" duration="30.00"/>
    </vehicle>

    <vehicle id="49_subway_L6:1" type="pt_subway" depart="160.00" departLane="0" arrival="233.00">
        <route edges="867668776 867668759 867668757 363139234"/>
        <stop busStop="3673333976" duration="30.00"/>
    </vehicle>

    <vehicle id="1_bus_N61:0" type="pt_bus" depart="3.00" departLane="0" arrival="234.00">
        <route edges="519375847#1 68506254#2 295263592 -295263587#1 -315739558#3 526129884 295263589#0 295263589#1 295263589#4"/>
        <stop busStop="5726021529" duration="30.00"/>
    </vehicle>

    <vehicle id="11_train_R1:0" type="pt_train" depart="38.00" departLane="0" arrival="245.00">
        <route edges="385483999 810841348#1"/>
        <stop busStop="3888388697" duration="30.00"/>
    </vehicle>

    <vehicle id="14_train_R16:0" type="pt_train" depart="152.00" departLane="0" arrival="248.00">
        <route edges="217122022"/>
        <stop busStop="7215417855" duration="30.00"/>
    </vehicle>

    <vehicle id="32_bus_7:0" type="pt_bus" depart="126.00" departLane="1" arrival="259.00">
        <route edges="449991617#0 449991617#3 449991617#5 449991617#6 449991617#8 449991617#9 550620361#0 550620361#1 483469233#0 483469233#1 126302004 1235264094#0 237522644#0 237522644#2"/>
        <stop busStop="5274072653" duration="30.00"/>
    </vehicle>

    <vehicle id="31_train_R16:1" type="pt_train" depart="203.00" departLane="0" arrival="267.00">
        <route edges="216952581"/>
        <stop busStop="7215417857" duration="30.00"/>
    </vehicle>

    <vehicle id="12_bus_X95:1" type="pt_bus" depart="41.00" departLane="0" arrival="305.00">
        <route edges="542956873 68506253#1 68506253#2 532631875 295215809#0 545932590#1 -238326403#0 -185957649#1 918410082#1 12373020#1 12373020#2 12373020#3 12373020#4 12373020#5 243591204#0 243591204#3"/>
        <stop busStop="8634928230" duration="30.00"/>
    </vehicle>

    <vehicle id="4_bus_N41:0" type="pt_bus" depart="15.00" departLane="0" arrival="310.00">
        <route edges="542956873 68506253#1 68506253#2 532631875 295215809#0 545932590#1 -238326403#0 -185957649#1 918410082#1 12373020#1 12373020#2 12373020#3 12373020#4 12373020#5 243591204#0 243591204#3"/>
        <stop busStop="1966472090" duration="30.00"/>
    </vehicle>

    <vehicle id="27_train_R1:1" type="pt_train" depart="102.00" departLane="0" arrival="310.00">
        <route edges="810224247 385539466#1"/>
        <stop busStop="3141961384" duration="30.00"/>
    </vehicle>

    <vehicle id="13_bus_141:0" type="pt_bus" depart="47.00" departLane="0" arrival="320.00">
        <route edges="237506930#0 243591201#0 243591201#1 243591201#2 237655875#0 237655875#1 121830607#0 121830607#1 121830607#3 121830607#4 -223928337#6 -223928337#5 -223928337#4 -223928337#1 4745021#1 4745021#2 4745021#5 237529472#1 246638748#2"/>
        <stop busStop="8097436670" duration="30.00"/>
    </vehicle>

    <vehicle id="37_bus_67:0" type="pt_bus" depart="132.00" departLane="0" arrival="324.00">
        <route edges="449991617#0 449991617#3 449991617#5 449991617#6 449991617#8 449991617#9 550620361#0 550620361#1 491443474#0 491443474#2 237522641#0 237522641#1 68506265#1 68506265#3 68506265#4 68506242#0 68506242#1 1214315734 1108368268 1214315735 1108368269#1 126304603#2"/>
        <stop busStop="8214234925" duration="30.00"/>
    </vehicle>

    <vehicle id="24_train_R14:0" type="pt_train" depart="231.00" departLane="0" arrival="327.00">
        <route edges="217122022"/>
        <stop busStop="7215417855" duration="30.00"/>
    </vehicle>

    <vehicle id="40_train_R15:0" type="pt_train" depart="267.00" departLane="0" arrival="331.00">
        <route edges="216952581"/>
        <stop busStop="7215417857" duration="30.00"/>
    </vehicle>

    <vehicle id="41_bus_e11.1:0" type="pt_bus" depart="137.00" departLane="0" arrival="343.00">
        <route edges="519375848#0 519375847#1 68506254#2 295263592 880144105 8380812#0 8380812#2 20475367#0 542956873"/>
        <stop busStop="1966472090" duration="30.00"/>
    </vehicle>

    <vehicle id="18_bus_N4:0" type="pt_bus" depart="60.00" departLane="0" arrival="353.00">
        <route edges="519375847#1 68506254#2 295263592 -295263587#1 -315739558#3 526129884 295263589#0 295263589#1 295263589#4"/>
        <stop busStop="9788442646" duration="30.00"/>
    </vehicle>

    <vehicle id="21_subway_L4:0" type="pt_subway" depart="66.00" departLane="0" arrival="364.00">
        <route edges="871431262"/>
        <stop busStop="3397396367" duration="30.00"/>
        <stop busStop="3397396612" duration="30.00"/>
        <stop busStop="3397396674" duration="30.00"/>
        <stop busStop="3397396637" duration="30.00"/>
    </vehicle>

    <vehicle id="28_train_R4:0" type="pt_train" depart="135.00" departLane="0" arrival="377.00">
        <route edges="810224247 385539466#1"/>
        <stop busStop="3141961384" duration="30.00"/>
    </vehicle>

    <vehicle id="56_train_R3:0" type="pt_train" depart="184.00" departLane="0" arrival="391.00">
        <route edges="385483999 810841348#1"/>
        <stop busStop="3888388697" duration="30.00"/>
    </vehicle>

    <vehicle id="61_train_R16:3" type="pt_train" depart="331.00" departLane="0" arrival="395.00">
        <route edges="216952581"/>
        <stop busStop="7215417857" duration="30.00"/>
    </vehicle>

    <vehicle id="43_bus_e11.2:0" type="pt_bus" depart="146.00" departLane="0" arrival="401.00">
        <route edges="519375848#0 519375847#1 68506254#2 295263592 880144105 8380812#0 8380812#2 20475367#0 542956873"/>
        <stop busStop="1966472090" duration="30.00"/>
    </vehicle>

    <vehicle id="55_train_R2Sud:1" type="pt_train" depart="310.00" departLane="0" arrival="406.00">
        <route edges="217122022"/>
        <stop busStop="7215417855" duration="30.00"/>
    </vehicle>

    <vehicle id="19_bus_N4:1" type="pt_bus" depart="60.00" departLane="0" arrival="433.00">
        <route edges="126301387#0 549518619 315739558#1 295263587#0 880144105 8380812#0 8380812#2 20475367#0 542956873 68506265#1 68506265#3 68506265#4 68506242#0 68506242#1 1214315734 1108368268 1214315735 1108368269#1 20355312#1 545937949#0 140001504#2 140001504#3 545937948#0 20475905#2"/>
        <stop busStop="5609793224" duration="30.00"/>
    </vehicle>

    <vehicle id="22_subway_L2:0" type="pt_subway" depart="72.00" departLane="0" arrival="438.00">
        <route edges="549603120"/>
        <stop busStop="3397396636" duration="30.00"/>
        <stop busStop="3397396654" duration="30.00"/>
        <stop busStop="3397396672" duration="30.00"/>
        <stop busStop="5314633543" duration="30.00"/>
        <stop busStop="3397396665" duration="30.00"/>
    </vehicle>

    <vehicle id="88_bus_N11:1" type="pt_bus" depart="323.00" departLane="0" arrival="443.00">
        <route edges="519375847#1 68506254#2 295263592 880144105 8380812#0 8380812#2"/>
        <stop busStop="2989714854" duration="30.00"/>
    </vehicle>

    <vehicle id="30_train_R12:0" type="pt_train" depart="168.00" departLane="0" arrival="444.00">
        <route edges="810224247 385539466#1"/>
        <stop busStop="3141961384" duration="30.00"/>
    </vehicle>

    <vehicle id="78_bus_N5:1" type="pt_bus" depart="285.00" departLane="0" arrival="446.00">
        <route edges="449991617#0 449991617#3 449991617#5 449991617#6 449991617#8 449991617#9 550620361#0 550620361#1 491443474#0 491443474#2 237522641#0 237522641#1 68506265#1 68506265#3 68506265#4 68506242#0 68506242#1 1214315734 1108368268 1214315735 1108368269#1 20355312#1 545937949#0 295263590"/>
        <stop busStop="8214234925" duration="30.00"/>
    </vehicle>

    <vehicle id="0_train_S2:0" type="pt_train" depart="0.00" departLane="0" arrival="452.00">
        <route edges="866397101 866397101 867668775"/>
        <stop busStop="8087619815" duration="30.00"/>
    </vehicle>

    <vehicle id="46_subway_L4:1" type="pt_subway" depart="158.00" departLane="0" arrival="458.00">
        <route edges="866378042#0 866378042#1 866393905#1"/>
        <stop busStop="462256418" duration="30.00"/>
        <stop busStop="462256414" duration="30.00"/>
        <stop busStop="462256413" duration="30.00"/>
        <stop busStop="462256384" duration="30.00"/>
    </vehicle>

    <vehicle id="58_train_R4:1" type="pt_train" depart="217.00" departLane="0" arrival="458.00">
        <route edges="385483999 810841348#1"/>
        <stop busStop="3888388697" duration="30.00"/>
    </vehicle>

    <vehicle id="116_bus_19:0" type="pt_bus" depart="418.00" departLane="0" arrival="458.00">
        <route edges="-126301387#1"/>
        <stop busStop="-5760480311" duration="30.00"/>
    </vehicle>

    <vehicle id="64_train_R13:1" type="pt_train" depart="395.00" departLane="0" arrival="459.00">
        <route edges="216952581"/>
        <stop busStop="7215417857" duration="30.00"/>
    </vehicle>

    <vehicle id="85_bus_N9:0" type="pt_bus" depart="318.00" departLane="0" arrival="475.00">
        <route edges="905380775 537787889#2 -893745919#1 -1235276476 -1235264093#2 8380873#0 8380873#1 237522644#0 237522644#2"/>
        <stop busStop="8372241999" duration="30.00"/>
    </vehicle>

    <vehicle id="113_bus_B20:0" type="pt_bus" depart="406.00" departLane="0" arrival="479.00">
        <route edges="546184103#0 237787045#0"/>
        <stop busStop="5278388752" duration="30.00"/>
    </vehicle>

    <vehicle id="60_train_R16:2" type="pt_train" depart="389.00" departLane="0" arrival="485.00">
        <route edges="217122022"/>
        <stop busStop="7215417855" duration="30.00"/>
    </vehicle>

    <vehicle id="36_bus_D20:0" type="pt_bus" depart="132.00" departLane="0" arrival="489.00">
        <route edges="359739475#0 359739475#2 359739475#4 359739475#7 785372924#1 287856806#0 237566151#1 237566153#3 237566153#4 237715987#1 237715987#3 237725961 237715966#0 18512190#0 18512190#2 18512190#3 -423232176#2 -4079513#7 -4079513#4 -4079513#2 -4079513#1 -4079513#0"/>
        <stop busStop="2610196515" duration="30.00"/>
    </vehicle>

    <vehicle id="69_bus_N0:0" type="pt_bus" depart="237.00" departLane="0" arrival="492.00">
        <route edges="283764984#0 293858826#1 237566153#3 237566153#4 237715987#1 237715987#3 237725961 237715966#0 18512190#0 18512190#2 18512190#3 -423232176#2 -4079513#7 -4079513#4 -4079513#2 -4079513#1 -4079513#0"/>
    </vehicle>

    <vehicle id="15_train_S1:0" type="pt_train" depart="52.00" departLane="0" arrival="500.00">
        <route edges="866397102#0 866397102#0 866397102#0"/>
        <stop busStop="8087619814" duration="30.00"/>
    </vehicle>

    <vehicle id="35_bus_H12:0" type="pt_bus" depart="131.00" departLane="0" arrival="500.00">
        <route edges="1110435370#0 1110435374 673080416 545747641 1110435373 237506948#2 550620361#0 550620361#1 491443474#0 491443474#2 237522641#0 237522641#1 68506253#1 68506253#2 532631875 295215809#0 545932590#1 532570624#0 532570624#2 449991649#0 449991649#1 449991649#2 526210689#0 526210689#1 237914534#0 237914534#2 237914534#4 237914534#5 237914534#6 545747639#1 545747635#2"/>
        <stop busStop="5274384898" duration="30.00"/>
    </vehicle>

    <vehicle id="57_train_R3:1" type="pt_train" depart="201.00" departLane="0" arrival="511.00">
        <route edges="810224247 385539466#1"/>
        <stop busStop="3141961384" duration="30.00"/>
    </vehicle>

    <vehicle id="70_bus_N0:1" type="pt_bus" depart="267.00" departLane="0" arrival="514.00">
        <route edges="4079513#0 4079513#1 4079513#2 4079513#3 4079513#6 423232176#0 18513247#2 18513247#5 18513247#6 514849724 237715986#0 237715986#1 237715986#2 237715986#3 22588050#0 22588050#1 882828677 246640823#0 518529171#0 518529171#2 237566147#1 293858825"/>
        <stop busStop="5609791813" duration="30.00"/>
    </vehicle>

    <vehicle id="86_bus_N9:1" type="pt_bus" depart="321.00" departLane="0" arrival="515.00">
        <route edges="449991617#0 449991617#3 449991617#5 449991617#6 449991617#8 449991617#9 550620361#0 550620361#1 491443474#0 491443474#2 237522641#0 237522641#1 68506265#1 68506265#3 11680392#0 11680392#1 11680392#2 905380775"/>
        <stop busStop="8214234925" duration="30.00"/>
    </vehicle>

    <vehicle id="65_train_R14:1" type="pt_train" depart="459.00" departLane="0" arrival="523.00">
        <route edges="216952581"/>
        <stop busStop="7215417857" duration="30.00"/>
    </vehicle>

    <vehicle id="62_train_R12:1" type="pt_train" depart="250.00" departLane="0" arrival="525.00">
        <route edges="385483999 810841348#1"/>
        <stop busStop="3888388697" duration="30.00"/>
    </vehicle>

    <vehicle id="68_bus_D20:1" type="pt_bus" depart="228.00" departLane="0" arrival="526.00">
        <route edges="4079513#0 4079513#1 4079513#2 4079513#3 4079513#6 423232176#0 18513247#2 18513247#5 18513247#6 514849724 237715986#0 237715986#1 237715986#2 237715986#3 22588050#0 22588050#1 882828677 246640823#0 237790232#1 237790232#2 785372925#1 291731094#2 291731094#4 291731094#6"/>
        <stop busStop="5609791814" duration="30.00"/>
    </vehicle>

    <vehicle id="119_bus_22:1" type="pt_bus" depart="440.00" departLane="0" arrival="528.00">
        <route edges="519375848#0 519375847#1"/>
        <stop busStop="8248379225" duration="30.00"/>
    </vehicle>

    <vehicle id="8_bus_101:0" type="pt_bus" depart="27.00" departLane="0" arrival="552.00">
        <route edges="295263590 449991617#0 449991617#3 449991617#5 449991617#6 449991617#8 449991617#9 550620361#0 550620361#1 491443474#0 491443474#2 237522641#0 237522641#1 68506265#1 68506265#3 68506265#4 68506242#0 68506242#1 1214315734 1108368268 1214315735 1108368269#1 20355312#1 545937949#0"/>
        <stop busStop="5375631708" duration="30.00"/>
    </vehicle>

    <vehicle id="107_bus_V11:0" type="pt_bus" depart="383.00" departLane="0" arrival="555.00">
        <route edges="237649293#0 237649293#1 1223827918#2 246638755#0 246638755#2 488501166 223928337#2 223928337#5 223928337#6 223928339#0 223928339#1 223928339#2 223928339#4 237655878#0"/>
    </vehicle>

    <vehicle id="63_train_R13:0" type="pt_train" depart="468.00" departLane="0" arrival="564.00">
        <route edges="217122022"/>
        <stop busStop="7215417855" duration="30.00"/>
    </vehicle>

    <vehicle id="45_subway_L2:1" type="pt_subway" depart="157.00" departLane="0" arrival="566.00">
        <route edges="447856553"/>
        <stop busStop="462295962" duration="30.00"/>
        <stop busStop="462295955" duration="30.00"/>
        <stop busStop="5314633722" duration="30.00"/>
        <stop busStop="4454100050" duration="30.00"/>
        <stop busStop="462295947" duration="30.00"/>
        <stop busStop="3699659474" duration="30.00"/>
    </vehicle>

    <vehicle id="77_bus_N5:0" type="pt_bus" depart="275.00" departLane="0" arrival="567.00">
        <route edges="295263590 295263591#0 1065887038 -295263587#1 -315739558#3 526129884 295263589#0 295263589#1 295263589#4"/>
        <stop busStop="5603009322" duration="30.00"/>
    </vehicle>

    <vehicle id="117_bus_19:1" type="pt_bus" depart="422.00" departLane="0" arrival="577.00">
        <route edges="519375847#1 68506254#2 295263592 -295263587#1 -315739558#3 -549518619 -126301387#1"/>
        <stop busStop="-5760480311" duration="30.00"/>
    </vehicle>

    <vehicle id="59_train_RG1:0" type="pt_train" depart="234.00" departLane="0" arrival="578.00">
        <route edges="810224247 385539466#1"/>
        <stop busStop="3141961384" duration="30.00"/>
    </vehicle>

    <vehicle id="138_bus_121:0" type="pt_bus" depart="522.00" departLane="0" arrival="578.00">
        <route edges="237529472#1 246638748#2"/>
        <stop busStop="2536484166" duration="30.00"/>
    </vehicle>

    <vehicle id="133_bus_63:1" type="pt_bus" depart="498.00" departLane="0" arrival="597.00">
        <route edges="449991617#0 449991617#3 449991617#5 449991617#6 449991617#8 449991617#9 550620361#0 550620361#1 491443474#0 491443474#2 237522641#0 237522641#1"/>
        <stop busStop="8214234925" duration="30.00"/>
    </vehicle>

    <vehicle id="123_bus_24:1" type="pt_bus" depart="456.00" departLane="0" arrival="600.00">
        <route edges="295268540#0 295268540#1 295268540#4 295268540#6 295263588 8380812#0 8380812#2"/>
        <stop busStop="2989714853" duration="30.00"/>
    </vehicle>

    <vehicle id="6_bus_N41:1" type="pt_bus" depart="20.00" departLane="0" arrival="608.00">
        <route edges="532696001#0 532696001#1 545718433#2 532696011#0 532696011#1 532696011#2 532696011#4 328020781#0 328020781#1 545030298 237525159#0 237525159#1 237525159#3 491443474#0 491443474#2 237522643#0 237522643#1 237522643#2 237522643#4 1235264095#2 1235264093#1 962829744 893745919#0 20475367#0 542956873"/>
        <stop busStop="1966472090" duration="30.00"/>
    </vehicle>

    <vehicle id="139_bus_121:1" type="pt_bus" depart="523.00" departLane="1" arrival="611.00">
        <route edges="237649293#0 237649293#1 1223827918#2 246638755#0 246638755#2 4745021#1 4745021#2 4745021#5 237529472#1"/>
    </vehicle>

    <vehicle id="47_subway_L1:1" type="pt_subway" depart="158.00" departLane="0" arrival="615.00">
        <route edges="810841352#0 810841352#1"/>
        <stop busStop="3397396360" duration="30.00"/>
        <stop busStop="4449876855" duration="30.00"/>
        <stop busStop="3397396380" duration="30.00"/>
        <stop busStop="3397396671" duration="30.00"/>
        <stop busStop="3397396673" duration="30.00"/>
        <stop busStop="3397396649" duration="30.00"/>
        <stop busStop="3397396596" duration="30.00"/>
    </vehicle>

    <vehicle id="118_bus_22:0" type="pt_bus" depart="432.00" departLane="0" arrival="618.00">
        <route edges="519375847#1 68506254#2 295263592 -295263587#1 -315739558#3 526129884 295263589#0 295263589#1 295263589#4"/>
        <stop busStop="8248379225" duration="30.00"/>
    </vehicle>

    <vehicle id="5_bus_X95:0" type="pt_bus" depart="15.00" departLane="0" arrival="621.00">
        <route edges="532696001#0 532696001#1 545718433#2 532696011#0 532696011#1 532696011#2 532696011#4 328020781#0 328020781#1 545030298 237525159#0 237525159#1 237525159#3 491443474#0 491443474#2 237522643#0 237522643#1 237522643#2 237522643#4 1235264095#2 1235264093#1 962829744 893745919#0 20475367#0 542956873"/>
        <stop busStop="5760480286" duration="30.00"/>
    </vehicle>

    <vehicle id="16_bus_N20:0" type="pt_bus" depart="54.00" departLane="0" arrival="629.00">
        <route edges="519375847#1 68506254#2 295263592 880144105 8380812#0 8380812#2 20475367#0 542956873 68506253#1 68506253#2 532631875 295215809#0 545932590#1 -238326403#0 -185957649#1 918410082#1 12373020#1 12373020#2 12373020#3 12373020#4 12373020#5 243591204#0 243591204#3"/>
        <stop busStop="2989714853" duration="30.00"/>
    </vehicle>

    <vehicle id="66_train_R15:1" type="pt_train" depart="547.00" departLane="0" arrival="643.00">
        <route edges="217122022"/>
        <stop busStop="7215417855" duration="30.00"/>
    </vehicle>

    <vehicle id="143_bus_N81:0" type="pt_bus" depart="527.00" departLane="0" arrival="645.00">
        <route edges="519375848#0 519375847#1"/>
        <stop busStop="5364626633" duration="30.00"/>
    </vehicle>

    <vehicle id="108_bus_V11:1" type="pt_bus" depart="384.00" departLane="0" arrival="654.00">
        <route edges="237506930#0 243591201#0 243591201#1 243591201#2 237655875#0 237655875#1 121830607#0 121830607#1 121830607#3 121830607#4 -223928337#6 -223928337#5 -223928337#4 -223928337#1 4745021#1 4745021#2 4745021#5 237529472#1 246638748#2"/>
        <stop busStop="8097436670" duration="30.00"/>
    </vehicle>

    <vehicle id="81_bus_N7:0" type="pt_bus" depart="303.00" departLane="0" arrival="663.00">
        <route edges="449991617#0 449991617#3 449991617#5 449991617#6 449991617#8 449991617#9 550620361#0 550620361#1 491443474#0 491443474#2 237522641#0 237522641#1 68506265#1 68506265#3 68506265#4 68506242#0 68506242#1 1214315734 1108368268 1214315735 1108368269#1 20355312#1 545937949#0 295263590 295263591#0 1065887038 -295263587#1 -315739558#3 526129884 295263589#0 295263589#1 295263589#4"/>
        <stop busStop="8214234925" duration="30.00"/>
    </vehicle>

    <vehicle id="122_bus_24:0" type="pt_bus" depart="441.00" departLane="0" arrival="674.00">
        <route edges="8380812#2 -893745919#1 -1235276476 -1235264093#2 8380873#0 8380873#1 237522644#0 237522644#2"/>
        <stop busStop="2989714853" duration="30.00"/>
    </vehicle>

    <vehicle id="23_subway_L1:0" type="pt_subway" depart="77.00" departLane="0" arrival="706.00">
        <route edges="810841346"/>
        <stop busStop="1417675798" duration="30.00"/>
        <stop busStop="463164954" duration="30.00"/>
        <stop busStop="463164953" duration="30.00"/>
        <stop busStop="462295951" duration="30.00"/>
        <stop busStop="4454100049" duration="30.00"/>
        <stop busStop="4449876854" duration="30.00"/>
        <stop busStop="463164952" duration="30.00"/>
        <stop busStop="463164950" duration="30.00"/>
        <stop busStop="462685387" duration="30.00"/>
    </vehicle>

    <vehicle id="72_bus_N1:1" type="pt_bus" depart="253.00" departLane="0" arrival="721.00">
        <route edges="1110435370#0 1110435374 673080416 545747641 1110435373 237506948#2 550620361#0 550620361#1 491443474#0 491443474#2 237522641#0 237522641#1 68506253#1 68506253#2 532631875 295215809#0 545932590#1 532570624#0 532570624#2 449991649#0 449991649#1 449991649#2 526210689#0 526210689#1 237914534#0 237914534#2 237914534#4 237914534#5 237914534#6 545747639#1 545747635#2"/>
        <stop busStop="5274384898" duration="30.00"/>
    </vehicle>

    <vehicle id="74_bus_N2:1" type="pt_bus" depart="260.00" departLane="0" arrival="732.00">
        <route edges="1110435370#0 1110435374 673080416 545747641 1110435373 237506948#2 550620361#0 550620361#1 491443474#0 491443474#2 237522641#0 237522641#1 68506253#1 68506253#2 532631875 295215809#0 545932590#1 532570624#0 532570624#2 449991649#0 449991649#1 449991649#2 526210689#0 526210689#1 237914534#0 237914534#2 237914534#4 237914534#5 237914534#6 545747639#1 545747635#2"/>
        <stop busStop="5274384898" duration="30.00"/>
    </vehicle>

    <vehicle id="159_bus_B25:0" type="pt_bus" depart="660.00" departLane="0" arrival="735.00">
        <route edges="546184103#0 237787045#0"/>
        <stop busStop="5278388752" duration="30.00"/>
    </vehicle>

    <vehicle id="38_bus_X1:0" type="pt_bus" depart="133.00" departLane="0" arrival="744.00">
        <route edges="532696001#0 532696001#1 545718433#2 532696011#0 532696011#1 532696011#2 532696011#4 328020781#0 328020781#1 545030298 237525159#0 237525159#1 237525159#3 483469233#0 483469233#1 126302005 673080418#0 316789524#0 316789524#1"/>
        <stop busStop="1474608404" duration="30.00"/>
    </vehicle>

    <vehicle id="114_bus_V17:0" type="pt_bus" depart="409.00" departLane="0" arrival="745.00">
        <route edges="-4752296#6 -4752296#5 -4752296#4 -4752296#3 -309051293#2 251073272#2 251073272#3 251073272#5 251073272#6 18510804#0 237725937#0 237725937#2 237725937#3 237725937#5 237725937#9 237725937#10 237725937#11 237725937#13 237725937#14 450574613 9412955#0 9412955#1 9412955#2 9412955#3 307054781#0 307054781#2 307054781#3 307054781#5 307054786#0 307054786#1 237787045#0"/>
        <stop busStop="-30317892" duration="30.00"/>
    </vehicle>

    <vehicle id="105_bus_H14:0" type="pt_bus" depart="383.00" departLane="0" arrival="746.00">
        <route edges="4079513#0 4079513#1 4079513#2 4079513#3 4079513#6 423232176#0 18513247#2 18513247#5 18513247#6 514849724 18510804#0 237725937#0 237725937#2 237725937#3 237725937#5 237725937#9 237725937#10 237725937#11 237725937#13 237725937#14 450574613 9412955#0 9412955#1 9412955#2 9412955#3 307054781#0 307054781#2 307054781#3 307054781#5 307054786#0 307054786#1 237787045#0"/>
    </vehicle>

    <vehicle id="42_bus_e11.1:1" type="pt_bus" depart="140.00" departLane="0" arrival="756.00">
        <route edges="542956873 68506253#1 68506253#2 532631875 295215809#0 -44027589#2 8380840#1 8380840#2 237525159#0 237525159#1 237525159#3 483469233#0 483469233#1 126302004 1235264094#0 237522644#0 237522644#2"/>
        <stop busStop="1966472090" duration="30.00"/>
    </vehicle>

    <vehicle id="50_bus_H12:1" type="pt_bus" depart="160.00" departLane="0" arrival="756.00">
        <route edges="532696001#0 532696001#1 545718433#2 532696011#0 532696011#1 532696011#2 532696011#4 328020781#0 328020781#1 545030298 237525159#0 237525159#1 237525159#3 483469233#0 483469233#1 126302004 1235264094#0 237522644#0 237522644#2"/>
        <stop busStop="5760480286" duration="30.00"/>
    </vehicle>

    <vehicle id="106_bus_H14:1" type="pt_bus" depart="383.00" departLane="0" arrival="764.00">
        <route edges="134547872#0 312564225#0 312564225#2 312564227 450581323 1089649276 22689846#0 22689846#2 353421099#0 353421099#1 353421099#2 307054785#0 307054785#1 307054785#3 307054785#4 307054785#5 307054785#6 307054785#7 1108370775#0 1108370775#1 1089649278 22658031#0 22658031#2 22658031#6 22658031#7 22658031#8 22658031#11 237715966#0 18512190#0 18512190#2 18512190#3 -423232176#2 -4079513#7 -4079513#4 -4079513#2 -4079513#1 -4079513#0"/>
        <stop busStop="8143303452" duration="30.00"/>
    </vehicle>

    <vehicle id="144_bus_C6:1" type="pt_bus" depart="539.00" departLane="0" arrival="782.00">
        <route edges="519375848#0 519375847#1 68506254#2 295263592 880144105 8380812#0 8380812#2 20475367#0 542956873"/>
        <stop busStop="1966472090" duration="30.00"/>
    </vehicle>

    <vehicle id="124_bus_47:0" type="pt_bus" depart="457.00" departLane="0" arrival="845.00">
        <route edges="359739475#0 359739475#2 359739475#4 359739475#7 785372924#1 287856806#0 237566151#1 237566153#3 237566153#4 237715987#1 237715987#3 237725937#0 237725937#2 237725937#3 237725937#5 237725937#9 237725937#10 237725937#11 237725937#13 237725937#14 450574613 9412955#0 9412955#1 9412955#2 9412955#3 307054781#0 307054781#2 307054781#3 307054781#5 307054786#0 307054786#1 237787045#0"/>
        <stop busStop="2610196515" duration="30.00"/>
    </vehicle>

    <vehicle id="115_bus_V17:1" type="pt_bus" depart="410.00" departLane="0" arrival="865.00">