<?xml version="1.0" encoding="UTF-8"?>

<!-- generated on 2024-04-18 17:39:40 by Eclipse SUMO sumo Version 1.19.0
<configuration xmlns:xsi="http://www.w3.org/2001/XMLSchema-instance" xsi:noNamespaceSchemaLocation="http://sumo.dlr.de/xsd/sumoConfiguration.xsd">

    <input>
        <net-file value="C:\Users\Jaime\Sumo\2024-04-18-17-37-51\osm.net.xml.gz"/>
        <route-files value="C:\Users\Jaime\Sumo\2024-04-18-17-37-51\trips.trips.xml"/>
        <additional-files value="C:\Users\Jaime\Sumo\2024-04-18-17-37-51\osm_stops.add.xml"/>
    </input>

    <output>
        <vehroute-output value="C:\Users\Jaime\Sumo\2024-04-18-17-37-51\vehroutes.xml"/>
        <stop-output value="C:\Users\Jaime\Sumo\2024-04-18-17-37-51\stopinfos.xml"/>
    </output>

    <time>
        <begin value="0.0"/>
    </time>

    <processing>
        <ignore-route-errors value="true"/>
    </processing>

    <routing>
        <device.rerouting.adaptation-interval value="0"/>
    </routing>

    <report>
        <aggregate-warnings value="5"/>
        <error-log value="C:\Users\Jaime\Sumo\2024-04-18-17-37-51\trips.trips.xml.errorlog"/>
        <no-step-log value="true"/>
    </report>

</configuration>
-->

<routes xmlns:xsi="http://www.w3.org/2001/XMLSchema-instance" xsi:noNamespaceSchemaLocation="http://sumo.dlr.de/xsd/routes_file.xsd">
    <vehicle id="51_train_AVE:0" type="pt_train" depart="77.00" departLane="0" arrival="108.00">
        <route edges="772266520#2"/>
        <stop busStop="1118396324@13280819" duration="30.00"/>
    </vehicle>

    <vehicle id="59_train_AVE:2" type="pt_train" depart="108.00" departLane="0" arrival="139.00">
        <route edges="772266520#2"/>
        <stop busStop="1118396324@13280819" duration="30.00"/>
    </vehicle>

    <vehicle id="55_train_Ouigo:3" type="pt_train" depart="91.00" departLane="0" arrival="144.00">
        <route edges="772266511"/>
        <stop busStop="1305698370" duration="30.00"/>
    </vehicle>

    <vehicle id="31_bus_X43:0" type="pt_bus" depart="52.00" departLane="0" arrival="146.00">
        <route edges="862748475 558313141#1 449751441#0 449751441#1 449751441#2 -129169441 -544243183"/>
        <stop busStop="8037346270" duration="30.00"/>
    </vehicle>

    <vehicle id="84_subway_L8:0" type="pt_subway" depart="132.00" departLane="0" arrival="163.00">
        <route edges="1177980248"/>
        <stop busStop="3377296749" duration="30.00"/>
    </vehicle>

    <vehicle id="62_train_Iryo:1" type="pt_train" depart="139.00" departLane="0" arrival="170.00">
        <route edges="772266520#2"/>
        <stop busStop="1118396324@13280819" duration="30.00"/>
    </vehicle>

    <vehicle id="56_train_Ouigo:4" type="pt_train" depart="144.00" departLane="0" arrival="197.00">
        <route edges="772266511"/>
        <stop busStop="1305698370" duration="30.00"/>
    </vehicle>

    <vehicle id="32_bus_X43:1" type="pt_bus" depart="54.00" departLane="0" arrival="201.00">
        <route edges="-863629113 -558302442#0 -864123947#1 -864123947#0 862748475"/>
        <stop busStop="8037346270" duration="30.00"/>
    </vehicle>

    <vehicle id="64_train_Iryo:3" type="pt_train" depart="170.00" departLane="0" arrival="201.00">
        <route edges="772266520#2"/>
        <stop busStop="1118396324@13280819" duration="30.00"/>
    </vehicle>

    <vehicle id="28_bus_X70:0" type="pt_bus" depart="47.00" departLane="0" arrival="205.00">
        <route edges="770048769#0 1246312059 404402531 1137827993#2 245676679#0 208708606 1104592109 208708602 245672925#0 1245524404 22650940#0 22650940#2"/>
        <stop busStop="1966516541" duration="30.00"/>
    </vehicle>

    <vehicle id="66_train_Iryo:4" type="pt_train" depart="201.00" departLane="0" arrival="232.00">
        <route edges="772266520#2"/>
        <stop busStop="1118396324@13280819" duration="30.00"/>
    </vehicle>

    <vehicle id="123_bus_N40:0" type="pt_bus" depart="177.00" departLane="0" arrival="233.00">
        <route edges="542956873"/>
        <stop busStop="1966472090" duration="30.00"/>
    </vehicle>

    <vehicle id="34_bus_X80:0" type="pt_bus" depart="55.00" departLane="0" arrival="242.00">
        <route edges="770048769#0 1246312059 404402531 1137827993#2 245676679#0 208708606 1104592109 208708602 245672925#0 1245524404 22650940#0 22650940#2"/>
        <stop busStop="1966516541" duration="30.00"/>
    </vehicle>

    <vehicle id="57_train_Ouigo:5" type="pt_train" depart="197.00" departLane="0" arrival="250.00">
        <route edges="772266511"/>
        <stop busStop="1305698370" duration="30.00"/>
    </vehicle>

    <vehicle id="151_subway_L8:1" type="pt_subway" depart="222.00" departLane="0" arrival="253.00">
        <route edges="1177980249"/>
        <stop busStop="3398928332" duration="30.00"/>
    </vehicle>

    <vehicle id="106_bus_62:0" type="pt_bus" depart="158.00" departLane="0" arrival="261.00">
        <route edges="94765579#0 238179136#0 238179136#1"/>
        <stop busStop="8279041072" duration="30.00"/>
    </vehicle>

    <vehicle id="39_bus_X97:0" type="pt_bus" depart="61.00" departLane="0" arrival="273.00">
        <route edges="-863629113 -558302442#0 -864123947#1 -864123947#0 862748475 558313141#1 449751441#0 449751441#1 449751441#2 -129169441 -544243183"/>
        <stop busStop="-5341631256" duration="30.00"/>
    </vehicle>

    <vehicle id="37_bus_X86:1" type="pt_bus" depart="59.00" departLane="0" arrival="279.00">
        <route edges="770048769#0 1246312059 404402531 1137827993#2 245676679#0 208708606 1104592109 208708602 245672925#0 1245524404 22650940#0 22650940#2"/>
        <stop busStop="1966516541" duration="30.00"/>
    </vehicle>

    <vehicle id="78_bus_123:0" type="pt_bus" depart="127.00" departLane="0" arrival="283.00">
        <route edges="-32429563#2 918365463 -680884121#0 -237506956#1 -237506956#0 -237506957#1 -237506957#0 -139259333#1"/>
        <stop busStop="-8168365826" duration="30.00"/>
    </vehicle>

    <vehicle id="158_train_S3:1" type="pt_train" depart="253.00" departLane="0" arrival="284.00">
        <route edges="1177980249"/>
        <stop busStop="3398928332" duration="30.00"/>
    </vehicle>

    <vehicle id="69_bus_89:1" type="pt_bus" depart="115.00" departLane="0" arrival="292.00">
        <route edges="185961564#0 185961564#3 185961564#6 880513897#2 880513897#3 880513897#6 880513897#8 880513897#9"/>
        <stop busStop="5603009324" duration="30.00"/>
    </vehicle>

    <vehicle id="29_bus_X70:1" type="pt_bus" depart="53.00" departLane="0" arrival="300.00">
        <route edges="545715327#0 545715327#2 245676677 208708603 1246312059 4787707 448563711 532289328#0 532289328#2 448563710 532088856#0 237529468#1 514849726#1 514849726#3 4750707#0 4750707#1 4750707#2"/>
        <stop busStop="8032746332" duration="30.00"/>
    </vehicle>

    <vehicle id="35_bus_X80:1" type="pt_bus" depart="92.00" departLane="0" arrival="302.00">
        <route edges="545715327#0 545715327#2 245676677 208708603 1246312059 4787707 448563711 532289328#0 532289328#2 448563710 532088856#0 237529468#1 514849726#1 514849726#3 4750707#0 4750707#1 4750707#2"/>
        <stop busStop="8032746332" duration="30.00"/>
    </vehicle>

    <vehicle id="48_bus_X84:0" type="pt_bus" depart="72.00" departLane="0" arrival="311.00">
        <route edges="-863629113 -558302442#0 -864123947#1 -864123947#0 862748475 558313141#1 449751441#0 449751441#1 449751441#2 -129169441 -544243183"/>
        <stop busStop="-5341631256" duration="30.00"/>
    </vehicle>

    <vehicle id="160_train_S8:1" type="pt_train" depart="284.00" departLane="0" arrival="315.00">
        <route edges="1177980249"/>
        <stop busStop="3398928332" duration="30.00"/>
    </vehicle>

    <vehicle id="52_train_Ouigo:0" type="pt_train" depart="79.00" departLane="0" arrival="317.00">
        <route edges="656070998 656071004 998479288 772266511"/>
        <stop busStop="1305698370" duration="30.00"/>
    </vehicle>

    <vehicle id="49_bus_X79:1" type="pt_bus" depart="76.00" departLane="0" arrival="320.00">
        <route edges="544243184#0 129169441 175002094#0 175002094#1 175002094#2 449606869#0 449606869#1 449606869#2 449606869#3 254329359#1"/>
        <stop busStop="5343770280" duration="30.00"/>
    </vehicle>

    <vehicle id="68_bus_89:0" type="pt_bus" depart="114.00" departLane="0" arrival="321.00">
        <route edges="867009429 86772200#3 86772200#5 86772200#6 827052043#0 827052043#1 827052043#2 827052043#3 827052043#7 880513895#2 880513895#3 880513895#6 880513895#9"/>
        <stop busStop="5609791818" duration="30.00"/>
    </vehicle>

    <vehicle id="30_bus_X30:0" type="pt_bus" depart="51.00" departLane="0" arrival="330.00">
        <route edges="254329359#1 862197867#0 862197868#0 862197868#1 449751440#0 449751440#1 449751440#2 -283778455#2 -283778455#1 -283778455#0 -129169441 -544243183"/>
        <stop busStop="8033328937" duration="30.00"/>
    </vehicle>

    <vehicle id="44_bus_L72:0" type="pt_bus" depart="66.00" departLane="0" arrival="344.00">
        <route edges="916317130 558584001#1 457712220#0 457712220#4 546184106#0 1137827992#0 1137827992#1 309183789#0 309183789#1 1137827995 245676679#0 208708606 1104592109 208708602 245672925#0 1245524404 22650940#0 22650940#2"/>
        <stop busStop="8066147073" duration="30.00"/>
    </vehicle>

    <vehicle id="196_bus_N0:0" type="pt_bus" depart="305.00" departLane="0" arrival="345.00">
        <route edges="4079520#2"/>
        <stop busStop="21638918" duration="30.00"/>
    </vehicle>

    <vehicle id="161_train_S4:0" type="pt_train" depart="315.00" departLane="0" arrival="346.00">
        <route edges="1177980249"/>
        <stop busStop="3398928332" duration="30.00"/>
    </vehicle>

    <vehicle id="71_bus_X83:0" type="pt_bus" depart="120.00" departLane="0" arrival="349.00">
        <route edges="-863629113 -558302442#0 -864123947#1 -864123947#0 862748475 558313141#1 449751441#0 449751441#1 449751441#2 -129169441 -544243183"/>
        <stop busStop="-5341631256" duration="30.00"/>
    </vehicle>

    <vehicle id="45_bus_L72:1" type="pt_bus" depart="182.00" departLane="0" arrival="354.00">
        <route edges="545715327#0 545715327#2 245676677 208708603 1246312059 4787707 448563711 532289328#0 532289328#2 448563710"/>
        <stop busStop="8032746332" duration="30.00"/>
    </vehicle>

    <vehicle id="135_tram_T5:0" type="pt_tram" depart="188.00" departLane="0" arrival="358.00">
        <route edges="1204050254 1188038972#1 332345206#0 332345206#1 332345206#3 332345206#4 332345205#0 332345205#1 332345205#2 332345205#3 332345205#4 332345205#5"/>
        <stop busStop="3394604154" duration="30.00"/>
        <stop busStop="3394604160" duration="30.00"/>
    </vehicle>

    <vehicle id="136_tram_T5:1" type="pt_tram" depart="188.00" departLane="0" arrival="374.00">
        <route edges="-332345205#5 -332345205#4 -332345205#3 -332345205#2 -332345205#1 -332345205#0 1178212808#0 1178212808#1 1178212808#3 1188038976#0 1188038976#1"/>
        <stop busStop="3394604161" duration="30.00"/>
        <stop busStop="3394604155" duration="30.00"/>
    </vehicle>

    <vehicle id="164_train_R6:1" type="pt_train" depart="346.00" departLane="0" arrival="377.00">
        <route edges="1177980249"/>
        <stop busStop="3398928332" duration="30.00"/>
    </vehicle>

    <vehicle id="128_bus_65:0" type="pt_bus" depart="180.00" departLane="0" arrival="381.00">
        <route edges="770048769#0 1246312059 404402531 1137827993#2 245676679#0 208708606 1104592109 208708602 245672925#0 1245524404 22650940#0 22650940#2"/>
        <stop busStop="1966516541" duration="30.00"/>
    </vehicle>

    <vehicle id="216_bus_N12:0" type="pt_bus" depart="331.00" departLane="0" arrival="381.00">
        <route edges="237790227#1"/>
        <stop busStop="6129339633" duration="30.00"/>
    </vehicle>

    <vehicle id="197_bus_N0:1" type="pt_bus" depart="343.00" departLane="0" arrival="383.00">
        <route edges="4079520#2"/>
        <stop busStop="8371290346" duration="30.00"/>
    </vehicle>

    <vehicle id="53_train_Ouigo:1" type="pt_train" depart="112.00" departLane="0" arrival="384.00">
        <route edges="656070998 656071004 998479288 772266511"/>
        <stop busStop="1305698370" duration="30.00"/>
    </vehicle>

    <vehicle id="36_bus_X86:0" type="pt_bus" depart="133.00" departLane="0" arrival="401.00">
        <route edges="545715327#0 545715327#2 245676677 208708603 1246312059 4787707 448563711 532289328#0 532289328#2 448563710 532088856#0 237529468#1 514849726#1 514849726#3 4750707#0 4750707#1 4750707#2"/>
        <stop busStop="8032746332" duration="30.00"/>
    </vehicle>

    <vehicle id="166_train_R60:1" type="pt_train" depart="377.00" departLane="0" arrival="408.00">
        <route edges="1177980249"/>
        <stop busStop="3398928332" duration="30.00"/>
    </vehicle>

    <vehicle id="137_tram_T6:0" type="pt_tram" depart="195.00" departLane="0" arrival="412.00">
        <route edges="-332345205#5 -332345205#4 -332345205#3 -332345205#2 -332345205#1 -332345205#0 1178212808#0 1178212808#1 1178212808#3 1188038976#0 1188038976#1"/>
        <stop busStop="3394604161" duration="30.00"/>
        <stop busStop="3394604155" duration="30.00"/>
    </vehicle>

    <vehicle id="33_bus_X79:0" type="pt_bus" depart="57.00" departLane="0" arrival="413.00">
        <route edges="254329359#1 862197867#0 862197868#0 862197868#1 449751440#0 449751440#1 449751440#2 -283778455#2 -283778455#1 -283778455#0 -129169441 -544243183"/>
        <stop busStop="-5341631257" duration="30.00"/>
    </vehicle>

    <vehicle id="108_bus_46:0" type="pt_bus" depart="159.00" departLane="0" arrival="419.00">
        <route edges="770048769#0 1246312059 404402531 1137827993#2 245676679#0 208708606 1104592109 208708602 245672925#0 1245524404 22650940#0 22650940#2"/>
        <stop busStop="1966516541" duration="30.00"/>
    </vehicle>

    <vehicle id="238_bus_V3:0" type="pt_bus" depart="369.00" departLane="0" arrival="428.00">
        <route edges="543400540#0 295288872 208616308#0 208606445#0 773889539 208606446#0 208616306"/>
        <stop busStop="5253055691" duration="30.00"/>
    </vehicle>

    <vehicle id="138_tram_T6:1" type="pt_tram" depart="227.00" departLane="0" arrival="429.00">
        <route edges="1204050254 1188038972#1 332345206#0 332345206#1 332345206#3 332345206#4 332345205#0 332345205#1 332345205#2 332345205#3 332345205#4 332345205#5"/>
        <stop busStop="3394604154" duration="30.00"/>
        <stop busStop="3394604160" duration="30.00"/>
    </vehicle>

    <vehicle id="168_train_R5:1" type="pt_train" depart="408.00" departLane="0" arrival="439.00">
        <route edges="1177980249"/>
        <stop busStop="3398928332" duration="30.00"/>
    </vehicle>

    <vehicle id="259_bus_23:1" type="pt_bus" depart="401.00" departLane="0" arrival="445.00">
        <route edges="887560129 245676677 532279581#0"/>
        <stop busStop="1193548729" duration="30.00"/>
    </vehicle>

    <vehicle id="54_train_Ouigo:2" type="pt_train" depart="145.00" departLane="0" arrival="451.00">
        <route edges="656070998 656071004 998479288 772266511"/>
        <stop busStop="1305698370" duration="30.00"/>
    </vehicle>

    <vehicle id="77_bus_Bus:_Guimerà_=_Barcelona:0" type="pt_bus" depart="127.00" departLane="0" arrival="451.00">
        <route edges="34054326#0 34054326#2 34054326#3 34054326#4 34054326#5 238862114#0 238862114#1 450186812#0 17206544#1 17206544#2 17206544#3 238768628#0 238768628#3 544164281#1 544164281#2 237805207#1 237805207#3 237805207#6 544164280#1 544164280#4 544164280#5 237960946#0 237960946#1 237960946#2 237960946#5 243598397#2 243598397#4 243598397#5 129216271#0 129216271#1 129216271#2 129216268 557140495 43706705#0 43706705#2 43706699 247548701 180717283#0 180717284#0 42520938 23425565 180717280#2 180717280#4 352482186#1 922121752#1"/>
        <stop busStop="539147490@1744556" duration="30.00"/>
    </vehicle>

    <vehicle id="266_bus_47:0" type="pt_bus" depart="409.00" departLane="0" arrival="459.00">
        <route edges="237790227#1"/>
        <stop busStop="6129339633" duration="30.00"/>
    </vehicle>

    <vehicle id="13_bus_1728:0" type="pt_bus" depart="19.00" departLane="2" arrival="467.00">
        <route edges="1000249404 1240405129 1043669615 1047669079#1 545747647#1 931878851 308354705#0 308354705#2 308354705#3 -44029286 -308354914#1 -308354914#0 -490655483#5 -490655483#4 -490655483#3 -490655483#0 -182069872#5 -182069872#4 -182069872#1 -182069872#0 -490655488#0 116359442#3 490602015#0 490602015#2 329378776#0 329378776#1 329378776#3 134198193#0 4746993#2"/>
        <stop busStop="1191150240" duration="30.00"/>
    </vehicle>

    <vehicle id="170_train_R50:1" type="pt_train" depart="439.00" departLane="0" arrival="470.00">
        <route edges="1177980249"/>
        <stop busStop="3398928332" duration="30.00"/>
    </vehicle>

    <vehicle id="235_bus_H4:1" type="pt_bus" depart="365.00" departLane="0" arrival="488.00">
        <route edges="-32429563#2 918365463 -680884121#0 -237506956#1 -237506956#0 -237506957#1 -237506957#0 -139259333#1"/>
        <stop busStop="-8168365826" duration="30.00"/>
    </vehicle>

    <vehicle id="234_bus_H4:0" type="pt_bus" depart="363.00" departLane="0" arrival="497.00">
        <route edges="139259333#0 237506957#0 237506957#1 237506957#4 237506956#1 680884121#0 969582715#0 32429563#1"/>
        <stop busStop="8168365849" duration="30.00"/>
    </vehicle>

    <vehicle id="40_train_9736:0" type="pt_train" depart="64.00" departLane="0" arrival="499.00">
        <route edges="772266514#2 656075744#1 656075742 184471374 810833109#1"/>
        <stop busStop="1118408124" duration="30.00"/>
    </vehicle>

    <vehicle id="58_train_AVE:1" type="pt_train" depart="178.00" departLane="0" arrival="499.00">
        <route edges="656070998 656071004 998479289 395889346 772558509#0 -772558508#0 772266514#2"/>
        <stop busStop="1118408124@13431684" duration="30.00"/>
    </vehicle>

    <vehicle id="61_train_Iryo:0" type="pt_train" depart="211.00" departLane="0" arrival="500.00">
        <route edges="656070998 656071004 998479289 772794873 774727419 -772558510#1 772558511#1 772266520#2"/>
        <stop busStop="1118396324@13280819" duration="30.00"/>
    </vehicle>

    <vehicle id="258_bus_23:0" type="pt_bus" depart="398.00" departLane="0" arrival="505.00">
        <route edges="770048769#0 1246312059 404402531 1137827993#2 245676679#0 208708606 1104592109 208708602 245672925#0 1245524404 887560129"/>
        <stop busStop="8228181023" duration="30.00"/>
    </vehicle>

    <vehicle id="300_bus_70:1" type="pt_bus" depart="477.00" departLane="0" arrival="527.00">
        <route edges="45185732#4"/>
        <stop busStop="8286917383" duration="30.00"/>
    </vehicle>

    <vehicle id="253_bus_V27:1" type="pt_bus" depart="389.00" departLane="0" arrival="539.00">
        <route edges="237927190#0 237927190#5 237927190#6 237927190#8 237927190#10 243591205#0 243591205#1 546607925#0 546607925#1 546607925#3 237506928#0 237506928#1 237506928#2 237506928#4 416456060 416456059#0 237715975#0 237715975#1 237790227#1"/>
        <stop busStop="8206342477" duration="30.00"/>
    </vehicle>

    <vehicle id="301_bus_131:0" type="pt_bus" depart="477.00" departLane="0" arrival="547.00">
        <route edges="35172602#0 35172602#1 35172602#2 35172602#3 554918726#0 554918726#1"/>
        <stop busStop="8355024726" duration="30.00"/>
    </vehicle>

    <vehicle id="331_train_S9:0" type="pt_train" depart="518.00" departLane="0" arrival="549.00">
        <route edges="1177980249"/>
        <stop busStop="3398928332" duration="30.00"/>
    </vehicle>

    <vehicle id="282_bus_79:0" type="pt_bus" depart="437.00" departLane="1" arrival="552.00">
        <route edges="770048769#0 1246312059 404402531 1137827993#2 245676679#0 208708606 1104592109 208708602 245672925#0 1245524404 22650940#0 22650940#2"/>
        <stop busStop="1966516541" duration="30.00"/>
    </vehicle>

    <vehicle id="281_bus_150:1" type="pt_bus" depart="466.00" departLane="0" arrival="555.00">
        <route edges="770048769#0 1246312059 4787707 448563711"/>
        <stop busStop="1193548784" duration="30.00"/>
    </vehicle>

    <vehicle id="8_bus_N41:0" type="pt_bus" depart="14.00" departLane="0" arrival="558.00">
        <route edges="542956873 68506253#1 68506253#2 532631875 295215809#0 545932590#1 -238326403#0 -185957649#1 918410082#1 12373020#1 12373020#2 12373020#3 12373020#4 12373020#5 243591204#0 243591204#1 243591204#2 243591204#5 243591204#6 243591204#7 243591204#8 243591204#9 243591204#10 243591204#11 243591204#12 237529479#1 237529479#2 237529479#4 237529479#5 237529479#6 237529479#7 237529479#8 237529479#9 237529479#10 237923125#0 237923125#1 237923125#2 546184106#0 1137827992#0 1137827992#1 309183789#0 309183789#1 1137827995 245676679#0 208708606 1104592109 208708602 245672925#0 1245524404 22650940#0 22650940#2"/>
        <stop busStop="1966472090" duration="30.00"/>
    </vehicle>

    <vehicle id="63_train_Iryo:2" type="pt_train" depart="260.00" departLane="0" arrival="567.00">
        <route edges="656070998 656071004 998479289 772794873 774727419 -772558510#1 772558511#1 772266520#2"/>
        <stop busStop="1118396324@13280819" duration="30.00"/>
    </vehicle>

    <vehicle id="46_bus_141:0" type="pt_bus" depart="69.00" departLane="0" arrival="583.00">
        <route edges="145565059#1 868707436#1 237960950 553586755#1 553586755#3 570088936#1 570088936#2 295263585#1 295263585#3 237960949#2 237960949#4 237960949#5 237960949#6 237960949#7 237960949#8 237960949#10 552422734#1 552422734#2 552422734#3 552422733#1 552422733#2 552422733#4 1112404106#0 1112404106#1 1112404106#5 1112404106#9 449991639#1 449991639#2 449991639#4 449991639#5 449991639#6 449991639#8 1227367185#0 1227367185#1 879204520 905210700#0 905210700#2 905210700#3 237506930#0 237506930#1 237506930#2 243591204#0 243591204#1 243591204#2 243591204#5 243591204#6 243591204#7 243591204#8 243591204#9 449991637#3 449991637#4 449991637#6 450610285#0 450610285#1 591637631#1 238326399#0 238326399#1 547477971#2 868707435#0 868707435#1"/>
        <stop busStop="8097353540" duration="30.00"/>
    </vehicle>

    <vehicle id="107_bus_115:0" type="pt_bus" depart="158.00" departLane="0" arrival="584.00">
        <route edges="831157579#0 831157579#1 831157580#0 42520941#0 42520941#2 831157582#0 831157582#1 831157582#6 831157582#8 243598403 1227311558#0 1239683617#1 294021549#1 294021549#2 309246597 550730492 831157592 -905524536#6 905524536#5 315269000#0 42520943#0 42520943#1 42520943#2 129216268 180010044#0 180010044#2 557065981#0 557065981#3 30761362#1"/>
        <stop busStop="7760665318" duration="30.00"/>
    </vehicle>

    <vehicle id="316_bus_M14:0" type="pt_bus" depart="505.00" departLane="0" arrival="593.00">
        <route edges="-863629113 -558302442#0 -864123947#1 -864123947#0"/>
        <stop busStop="-8050203730" duration="30.00"/>
    </vehicle>

    <vehicle id="42_train_9704:0" type="pt_train" depart="142.00" departLane="0" arrival="602.00">
        <route edges="772266514#2 656075744#1 656075742 184471374 810833109#1"/>
        <stop busStop="1118408124" duration="30.00"/>
    </vehicle>

    <vehicle id="285_bus_116:0" type="pt_bus" depart="444.00" departLane="0" arrival="610.00">
        <route edges="1264832639#0 1264832640#1 1264832641#0 1264832643#1 123527842#1 831182073#1 1236965646 296827099#0 296827099#1 -208568869#3 -208568869#2 -208568869#1 208568868#2"/>
        <stop busStop="8319115754" duration="30.00"/>
    </vehicle>

    <vehicle id="102_train_AVE:3" type="pt_train" depart="394.00" departLane="0" arrival="620.00">
        <route edges="656070998 656071004 998479289 395889346 772558509#0 -772558508#0 772266514#2"/>
        <stop busStop="1118408124@13431684" duration="30.00"/>
    </vehicle>

    <vehicle id="239_bus_V5:0" type="pt_bus" depart="371.00" departLane="0" arrival="621.00">
        <route edges="831157579#0 831157579#1 831157580#0 243598396#3 243598396#4 243598396#5 243598396#6 243598396#9 243598396#10 243598396#13 243598396#15 243598396#18 243598396#21 243598396#23 -1162491019#2 -239293914#6 4750221#1 4750221#3 4750221#4 4750221#6 4750221#7 4750221#8 4750221#9 544641226#0 544641226#1 450020890"/>
        <stop busStop="7760665318" duration="30.00"/>
    </vehicle>

    <vehicle id="296_bus_121:0" type="pt_bus" depart="470.00" departLane="0" arrival="626.00">
        <route edges="237529472#1 246638748#2 238326399#0 238326399#1 547477971#2 340350446#1 340350446#2 552124691#3"/>
        <stop busStop="2536484166" duration="30.00"/>
    </vehicle>

    <vehicle id="88_subway_L7:0" type="pt_subway" depart="136.00" departLane="0" arrival="627.00">
        <route edges="867668762 867668756 363139235 867668752 867668760 867668775 810841350#1 332758529 363164188#1"/>
        <stop busStop="3673333977" duration="30.00"/>
        <stop busStop="255406917" duration="30.00"/>
        <stop busStop="3398928312" duration="30.00"/>
        <stop busStop="3398928333" duration="30.00"/>
        <stop busStop="259650072" duration="30.00"/>
        <stop busStop="259650081" duration="30.00"/>
    </vehicle>

    <vehicle id="97_train_S3:0" type="pt_train" depart="163.00" departLane="0" arrival="629.00">
        <route edges="1177980248 1177980248 1177980248"/>
        <stop busStop="3377296749" duration="30.00"/>
    </vehicle>

    <vehicle id="156_subway_L7:1" type="pt_subway" depart="231.00" departLane="0" arrival="632.00">
        <route edges="363164188#1 363054423 810841349#2 810841349#0 867668759 867668773#0 867668773#1 -867668758"/>
        <stop busStop="3398928365" duration="30.00"/>
        <stop busStop="3398928339" duration="30.00"/>
        <stop busStop="259650063" duration="30.00"/>
        <stop busStop="1899907352" duration="30.00"/>
        <stop busStop="3398928337" duration="30.00"/>
        <stop busStop="-3673333977" duration="30.00"/>
    </vehicle>

    <vehicle id="67_train_Iryo:5" type="pt_train" depart="327.00" departLane="0" arrival="634.00">
        <route edges="656070998 656071004 998479289 772794873 774727419 -772558510#1 772558511#1 772266520#2"/>
        <stop busStop="1118396324@13280819" duration="30.00"/>
    </vehicle>

    <vehicle id="314_bus_165:0" type="pt_bus" depart="500.00" departLane="0" arrival="634.00">
        <route edges="770048769#0 1246312059 404402531 1137827993#2 245676679#0 208708606 1104592109 208708602 245672925#0 1245524404 22650940#0 22650940#2"/>
        <stop busStop="1966516541" duration="30.00"/>
    </vehicle>

    <vehicle id="41_train_9743:0" type="pt_train" depart="64.00" departLane="0" arrival="636.00">
        <route edges="772266517#0 772266517#0 772266517#0"/>
        <stop busStop="1118396324" duration="30.00"/>
    </vehicle>

    <vehicle id="126_bus_68:0" type="pt_bus" depart="179.00" departLane="0" arrival="636.00">
        <route edges="238324877#1 490175813#0 490175813#1 4744972#1 4744972#2 4744972#7 542781427#0 542781427#1 542781427#3 4744966#1 4744966#3 4744966#4 4744966#6 4744966#7 4744966#8 4744966#9 237659855#0 237659855#1 536376972#0 536376972#1 244059994#0 244059994#1 238324875#0 238324875#1 237506961 918459857#1 918459858#0 918459858#5 918459858#8 237506929#1 237506929#4 237506929#7 237506963#0 308378779 295263593#1 295263593#2 308378776#1 308378774#0 243525358#2 308378773 902154887 308378772#0 308378772#3 308378771#0 308378771#1 308378769"/>
        <stop busStop="2510905949" duration="30.00"/>
    </vehicle>

    <vehicle id="311_bus_88:1" type="pt_bus" depart="497.00" departLane="0" arrival="638.00">
        <route edges="185961564#0 185961564#3 185961564#6 880513897#2 880513897#3 880513897#6 880513897#8 880513897#9"/>
        <stop busStop="5603009324" duration="30.00"/>
    </vehicle>

    <vehicle id="317_bus_M14:1" type="pt_bus" depart="507.00" departLane="0" arrival="638.00">
        <route edges="-864123947#0 862748475 558313141#1 449751441#0 449751441#1 449751441#2 -129169441 -544243183"/>
        <stop busStop="-8050203730" duration="30.00"/>
    </vehicle>

    <vehicle id="38_bus_X95:1" type="pt_bus" depart="60.00" departLane="0" arrival="639.00">
        <route edges="542956873 68506253#1 68506253#2 532631875 295215809#0 545932590#1 -238326403#0 -185957649#1 918410082#1 12373020#1 12373020#2 12373020#3 12373020#4 12373020#5 243591204#0 243591204#1 243591204#2 243591204#5 243591204#6 243591204#7 243591204#8 243591204#9 243591204#10 243591204#11 243591204#12 237529479#1 237529479#2 237529479#4 237529479#5 237529479#6 237529479#7 237529479#8 237529479#9 237529479#10 237923125#0 237923125#1 237923125#2 546184106#0 1137827992#0 1137827992#1 309183789#0 309183789#1 1137827995 245676679#0 208708606 1104592109 208708602 245672925#0 1245524404 22650940#0 22650940#2"/>
        <stop busStop="8634928230" duration="30.00"/>
    </vehicle>

    <vehicle id="302_bus_131:1" type="pt_bus" depart="481.00" departLane="0" arrival="645.00">
        <route edges="34874441#0 554918725#0 554918725#1 543586123#1 543586123#2 287522315#1 543586122#0 543586122#1 -910454226#1 -910454226#0 -262514248#2 -262514248#1 -44868702#8 -44868702#6"/>
        <stop busStop="412549133" duration="30.00"/>
    </vehicle>

    <vehicle id="94_bus_B20:0" type="pt_bus" depart="141.00" departLane="0" arrival="647.00">