<?xml version="1.0" encoding="UTF-8"?>

<!-- generated on 2024-06-24 12:40:28 by Eclipse SUMO sumo Version 1.19.0
<configuration xmlns:xsi="http://www.w3.org/2001/XMLSchema-instance" xsi:noNamespaceSchemaLocation="http://sumo.dlr.de/xsd/sumoConfiguration.xsd">

    <input>
        <net-file value="C:\Users\Jaime\Sumo\2024-06-24-12-40-15\osm.net.xml.gz"/>
        <route-files value="C:\Users\Jaime\Sumo\2024-06-24-12-40-15\trips.trips.xml"/>
        <additional-files value="C:\Users\Jaime\Sumo\2024-06-24-12-40-15\osm_stops.add.xml"/>
    </input>

    <output>
        <vehroute-output value="C:\Users\Jaime\Sumo\2024-06-24-12-40-15\vehroutes.xml"/>
        <stop-output value="C:\Users\Jaime\Sumo\2024-06-24-12-40-15\stopinfos.xml"/>
    </output>

    <time>
        <begin value="0.0"/>
    </time>

    <processing>
        <ignore-route-errors value="true"/>
    </processing>

    <routing>
        <device.rerouting.adaptation-interval value="0"/>
    </routing>

    <report>
        <aggregate-warnings value="5"/>
        <error-log value="C:\Users\Jaime\Sumo\2024-06-24-12-40-15\trips.trips.xml.errorlog"/>
        <no-step-log value="true"/>
    </report>

</configuration>
-->

<routes xmlns:xsi="http://www.w3.org/2001/XMLSchema-instance" xsi:noNamespaceSchemaLocation="http://sumo.dlr.de/xsd/routes_file.xsd">
    <vehicle id="9_light_rail_S1:0" type="pt_light_rail" depart="58.00" departLane="0" arrival="161.00">
        <route edges="463462759"/>
        <stop busStop="474368351" duration="30.00"/>
    </vehicle>

    <vehicle id="10_light_rail_S1:1" type="pt_light_rail" depart="60.00" departLane="0" arrival="163.00">
        <route edges="237751551"/>
        <stop busStop="1930939368" duration="30.00"/>
    </vehicle>

    <vehicle id="1_train_RE8:0" type="pt_train" depart="15.00" departLane="0" arrival="212.00">
        <route edges="72984396 32590644#1 32590651#1 32590900#1 25946666 1135947857 25946668#1 421021565#1"/>
        <stop busStop="2603331683" duration="30.00"/>
    </vehicle>

    <vehicle id="4_train_RE2:0" type="pt_train" depart="48.00" departLane="0" arrival="290.00">
        <route edges="72984396 32590644#1 32590651#1 32590900#1 25946666 1135947857 25946668#1 421021565#1"/>
        <stop busStop="2603331683" duration="30.00"/>
    </vehicle>

    <vehicle id="2_train_RE8:1" type="pt_train" depart="15.00" departLane="0" arrival="301.00">
        <route edges="25386365#0 25386365#1 442921387#0 442921387#1 25946656#1 25946673#1 25946674#1 25946676 32590898#1 32590890#1 32590636#1"/>
        <stop busStop="29805120" duration="30.00"/>
        <stop busStop="2776873647" duration="30.00"/>
    </vehicle>

    <vehicle id="13_tram_M4:0" type="pt_tram" depart="102.00" departLane="0" arrival="309.00">
        <route edges="1051100385#0 1051100385#1 1051100385#3 1051100385#4 1051100386 150394035#1 150394035#4 1284740822#0 1284740822#1 1284740822#2 1052827282#0 1052827282#3 10597134#1 421641064"/>
        <stop busStop="4673135647" duration="30.00"/>
        <stop busStop="1633759766" duration="30.00"/>
    </vehicle>

    <vehicle id="14_tram_M4:1" type="pt_tram" depart="119.00" departLane="0" arrival="348.00">
        <route edges="1051100385#0 1051100385#1 1051100385#3 1051100385#4 1051100386 150394035#1 150394035#4 1284740822#0 1284740822#1 1284740822#2 1052827282#0 1052827282#3 10597134#1 421641064"/>
        <stop busStop="4673135647" duration="30.00"/>
        <stop busStop="1633759766" duration="30.00"/>
    </vehicle>

    <vehicle id="22_light_rail_S5:1" type="pt_light_rail" depart="139.00" departLane="0" arrival="354.00">
        <route edges="4471823#0 4471823#1 4471823#2 4471823#3 25946658#1 25946658#2 196844848 -25946685#1 -195397542 25946681 25946682#1 25946682#2 32590902#1 32590894#1 32590894#2 4471817#1 4471817#2 4471817#3 32590638#1 32590645 32590647#0 32590647#1 32590494#1 32590496#1"/>
        <stop busStop="27412232" duration="30.00"/>
        <stop busStop="27411240" duration="30.00"/>
    </vehicle>

    <vehicle id="6_train_RE1:1" type="pt_train" depart="81.00" departLane="0" arrival="370.00">
        <route edges="72984396 32590644#1 32590651#1 32590900#1 25946666 1135947857 25946668#1 421021565#1"/>
        <stop busStop="2603331683" duration="30.00"/>
    </vehicle>

    <vehicle id="3_train_RB23:0" type="pt_train" depart="48.00" departLane="0" arrival="409.00">
        <route edges="25386365#0 25386365#1 442921387#0 442921387#1 25946656#1 25946673#1 25946674#1 25946676 32590898#1 32590890#1 32590636#1"/>
        <stop busStop="29805120" duration="30.00"/>
        <stop busStop="2776873647" duration="30.00"/>
    </vehicle>

    <vehicle id="39_bus_248:0" type="pt_bus" depart="253.00" departLane="0" arrival="412.00">
        <route edges="309479676 4611726#1 1132678576#0 819027709 1133457733 81112790#0 81112790#1 23851930"/>
        <stop busStop="3867910417" duration="30.00"/>
    </vehicle>

    <vehicle id="40_bus_248:1" type="pt_bus" depart="275.00" departLane="2" arrival="419.00">
        <route edges="11549897 1195383177 23851922 82654055 1133457765#0 1132678575#1 1133457766"/>
        <stop busStop="10567768924" duration="30.00"/>
    </vehicle>

    <vehicle id="29_tram_M6:0" type="pt_tram" depart="173.00" departLane="0" arrival="426.00">
        <route edges="1051100385#0 1051100385#1 1051100385#3 1051100385#4 1051100386 150394035#1 150394035#4 1284740822#0 1284740822#1 1284740822#2 1052827282#0 1052827282#3 10597134#1 421641064"/>
        <stop busStop="4673135647" duration="30.00"/>
        <stop busStop="1633759766" duration="30.00"/>
    </vehicle>

    <vehicle id="43_light_rail_S2:0" type="pt_light_rail" depart="326.00" departLane="0" arrival="429.00">
        <route edges="463462759"/>
        <stop busStop="474368351" duration="30.00"/>
    </vehicle>

    <vehicle id="19_tram_12:0" type="pt_tram" depart="133.00" departLane="0" arrival="434.00">
        <route edges="388702047#0 388702047#2 93584120#2 93584120#3 93584120#4 93584120#5 195411601#4 195411601#3 195411601#2 195411601#0 22820560#1 22820560#2 22820560#3 22820560#4 144014237#3 144014228#0 144014228#1 144014228#2"/>
        <stop busStop="990017251" duration="30.00"/>
        <stop busStop="247600965" duration="30.00"/>
        <stop busStop="3922258748" duration="30.00"/>
        <stop busStop="2175753204" duration="30.00"/>
    </vehicle>

    <vehicle id="44_light_rail_S2:1" type="pt_light_rail" depart="331.00" departLane="0" arrival="434.00">
        <route edges="237751551"/>
        <stop busStop="1930939368" duration="30.00"/>
    </vehicle>

    <vehicle id="21_light_rail_S5:0" type="pt_light_rail" depart="137.00" departLane="0" arrival="443.00">
        <route edges="72984388 32590498#1 32590501#1 32590648 32590649#0 32590649#1 32590649#2 32590640#1 32590640#2 32590653#1 32590904#1 25946685#1 25946685#2 25946678 25946662#1 25946662#2 29384521#1 29384522#1 29384522#2 29384522#3"/>
        <stop busStop="1745157971" duration="30.00"/>
        <stop busStop="2603331695" duration="30.00"/>
    </vehicle>

    <vehicle id="24_light_rail_S7:1" type="pt_light_rail" depart="158.00" departLane="0" arrival="445.00">
        <route edges="4471823#0 4471823#1 4471823#2 4471823#3 25946658#1 25946658#2 196844848 -25946685#1 -195397542 25946681 25946682#1 25946682#2 32590902#1 32590894#1 32590894#2 4471817#1 4471817#2 4471817#3 32590638#1 32590645 32590647#0 32590647#1 32590494#1 32590496#1"/>
        <stop busStop="27412232" duration="30.00"/>
        <stop busStop="27411240" duration="30.00"/>
    </vehicle>

    <vehicle id="15_tram_M4:2" type="pt_tram" depart="125.00" departLane="0" arrival="457.00">
        <route edges="803941122 23960874#3 1284740820 1284740821#1 1284740821#2 144014234#0 144014234#2 167523653#0 167523653#1 167523653#2 22962554#1 150394036 1051100384"/>
        <stop busStop="1633759760" duration="30.00"/>
        <stop busStop="30731481" duration="30.00"/>
    </vehicle>

    <vehicle id="16_tram_M4:3" type="pt_tram" depart="132.00" departLane="0" arrival="462.00">
        <route edges="803941122 23960874#3 1284740820 1284740821#1 1284740821#2 144014234#0 144014234#2 167523653#0 167523653#1 167523653#2 22962554#1 150394036 1051100384"/>
        <stop busStop="1633759760" duration="30.00"/>
        <stop busStop="30731481" duration="30.00"/>
    </vehicle>

    <vehicle id="35_bus_245:1" type="pt_bus" depart="222.00" departLane="0" arrival="462.00">
        <route edges="-176043807#6 -176043807#0 -176043806#2 -176043806#0 -1100824590#1 -1100824590#0 -111251382#3 -111251382#2 541295978#1 1097921784#1 -541295974#0 -222328410 34848160#2"/>
        <stop busStop="-3869306760" duration="30.00"/>
        <stop busStop="-3869306761" duration="30.00"/>
        <stop busStop="11178436225" duration="30.00"/>
    </vehicle>

    <vehicle id="49_light_rail_S25:0" type="pt_light_rail" depart="365.00" departLane="0" arrival="477.00">
        <route edges="463462759"/>
        <stop busStop="474368351" duration="30.00"/>
    </vehicle>

    <vehicle id="12_bus_200:1" type="pt_bus" depart="98.00" departLane="2" arrival="479.00">
        <route edges="11549897 1195383177 23851922 82654055 1133457765#0 606078065#1 1112054538 61583424#1 534588621#0 534588621#1 284493291#0 72157174#1 171826984#2 195401006 1113401735#1"/>
        <stop busStop="6682293818" duration="30.00"/>
        <stop busStop="1827996414" duration="30.00"/>
        <stop busStop="768074068" duration="30.00"/>
    </vehicle>

    <vehicle id="50_light_rail_S25:1" type="pt_light_rail" depart="371.00" departLane="0" arrival="482.00">
        <route edges="237751551"/>
        <stop busStop="1930939368" duration="30.00"/>
    </vehicle>

    <vehicle id="56_subway_U2:0" type="pt_subway" depart="393.00" departLane="0" arrival="497.00">
        <route edges="200422335"/>
        <stop busStop="2094266782" duration="30.00"/>
    </vehicle>

    <vehicle id="20_tram_12:1" type="pt_tram" depart="136.00" departLane="0" arrival="507.00">
        <route edges="144014228#2 207364192#1 207364192#2 207364192#3 207364192#4 207364192#5 168254756#1 167272512#0 167272512#1 167272512#2 167272512#3 167272512#4 167272512#7 167272512#8 167272512#9 167272512#10 195411594#1 195411594#2 195411594#3 195411594#4 165409971#4 165409971#3 165409971#2 165409971#1 165409971#0 388702049#1 388702049#2 1044592562#0 1044592562#2"/>
        <stop busStop="2175753204" duration="30.00"/>
        <stop busStop="1673526976" duration="30.00"/>
        <stop busStop="1823298700" duration="30.00"/>
    </vehicle>

    <vehicle id="57_subway_U2:1" type="pt_subway" depart="406.00" departLane="0" arrival="510.00">
        <route edges="272795470"/>
        <stop busStop="4961125734" duration="30.00"/>
    </vehicle>

    <vehicle id="23_light_rail_S7:0" type="pt_light_rail" depart="152.00" departLane="0" arrival="511.00">
        <route edges="72984388 32590498#1 32590501#1 32590648 32590649#0 32590649#1 32590649#2 32590640#1 32590640#2 32590653#1 32590904#1 25946685#1 25946685#2 25946678 25946662#1 25946662#2 29384521#1 29384522#1 29384522#2 29384522#3"/>
        <stop busStop="1745157971" duration="30.00"/>
        <stop busStop="2603331695" duration="30.00"/>
    </vehicle>

    <vehicle id="5_train_RE1:0" type="pt_train" depart="81.00" departLane="0" arrival="517.00">
        <route edges="25386365#0 25386365#1 442921387#0 442921387#1 25946656#1 25946673#1 25946674#1 25946676 32590898#1 32590890#1 32590636#1"/>
        <stop busStop="29805120" duration="30.00"/>
        <stop busStop="2776873647" duration="30.00"/>
    </vehicle>

    <vehicle id="11_bus_200:0" type="pt_bus" depart="93.00" departLane="0" arrival="533.00">
        <route edges="625647962 415280722 195401013#2 171826985#2 606078072#1 -534588621#1 -534588621#0 606078071#0 61583423#1 -751595930 82654059#0 82654059#1 819027709 1133457733 81112790#0 81112790#1 23851930"/>
        <stop busStop="4163212867" duration="30.00"/>
        <stop busStop="1827996417" duration="30.00"/>
        <stop busStop="-6744165042" duration="30.00"/>
    </vehicle>

    <vehicle id="61_light_rail_S2:2" type="pt_light_rail" depart="437.00" departLane="0" arrival="540.00">
        <route edges="463462759"/>
        <stop busStop="474368351" duration="30.00"/>
    </vehicle>

    <vehicle id="62_light_rail_S2:3" type="pt_light_rail" depart="437.00" departLane="0" arrival="540.00">
        <route edges="237751551"/>
        <stop busStop="1930939368" duration="30.00"/>
    </vehicle>

    <vehicle id="30_tram_M6:1" type="pt_tram" depart="188.00" departLane="0" arrival="545.00">
        <route edges="803941122 23960874#3 1284740820 1284740821#1 1284740821#2 144014234#0 144014234#2 167523653#0 167523653#1 167523653#2 22962554#1 150394036 1051100384"/>
        <stop busStop="1633759760" duration="30.00"/>
        <stop busStop="30731481" duration="30.00"/>
    </vehicle>

    <vehicle id="58_subway_U6:0" type="pt_subway" depart="410.00" departLane="0" arrival="551.00">
        <route edges="295250361 295250353#1 295250353#2 295376548"/>
        <stop busStop="8170794617" duration="30.00"/>
        <stop busStop="3869306769" duration="30.00"/>
    </vehicle>

    <vehicle id="59_subway_U6:1" type="pt_subway" depart="418.00" departLane="0" arrival="567.00">
        <route edges="378659153 335043673#0 335043673#1 335043673#2 387125527 295255789"/>
        <stop busStop="2792364395" duration="30.00"/>
        <stop busStop="8170769020" duration="30.00"/>
    </vehicle>

    <vehicle id="46_light_rail_S3:1" type="pt_light_rail" depart="346.00" departLane="0" arrival="578.00">
        <routeDistribution>
            <route replacedOnEdge="25946658#1" replacedOnIndex="4" reason="railSignal:11426127274_0" replacedAtTime="378.00" probability="0" edges="4471823#0 4471823#1 4471823#2 4471823#3 25946658#1 25946658#2 196844848 -25946685#1 -195397542 25946681 25946682#1 25946682#2 32590902#1 32590894#1 32590894#2 4471817#1 4471817#2 4471817#3 32590638#1 32590645 32590647#0 32590647#1 32590494#1 32590496#1"/>
            <route edges="4471823#0 4471823#1 4471823#2 4471823#3 25946658#1 25946658#2 4471818#1 25946681 25946682#1 25946682#2 32590902#1 32590894#1 32590894#2 4471817#1 4471817#2 4471817#3 32590638#1 32590645 32590647#0 32590647#1 32590494#1 32590496#1"/>
        </routeDistribution>
        <stop busStop="27412232" duration="30.00"/>
        <stop busStop="27411240" duration="30.00"/>
    </vehicle>

    <vehicle id="45_light_rail_S3:0" type="pt_light_rail" depart="334.00" departLane="0" arrival="579.00">
        <route edges="72984388 32590498#1 32590501#1 32590648 32590649#0 32590649#1 32590649#2 32590640#1 32590640#2 32590653#1 32590904#1 25946685#1 25946685#2 25946678 25946662#1 25946662#2 29384521#1 29384522#1 29384522#2 29384522#3"/>
        <stop busStop="1745157971" duration="30.00"/>
        <stop busStop="2603331695" duration="30.00"/>
    </vehicle>

    <vehicle id="41_subway_U5:0" type="pt_subway" depart="303.00" departLane="0" arrival="582.00">
        <route edges="248099627 942849696 942849695 248099628"/>
        <stop busStop="8087330616" duration="30.00"/>
        <stop busStop="7974955393" duration="30.00"/>
        <stop busStop="8196661136" duration="30.00"/>
    </vehicle>

    <vehicle id="42_subway_U5:1" type="pt_subway" depart="321.00" departLane="0" arrival="596.00">
        <route edges="-199425795 942849698#0 942849698#1 942849697 71326270"/>
        <stop busStop="8196661137" duration="30.00"/>
        <stop busStop="7974928190" duration="30.00"/>
        <stop busStop="8090274121" duration="30.00"/>
    </vehicle>

    <vehicle id="34_bus_245:0" type="pt_bus" depart="218.00" departLane="1" arrival="611.00">
        <route edges="1151064405#1 1151064407#2 195105329 1134013286 -292429063#2 -292429063#1 -292429063#0 -1151064411 1123106516 1123106898#1 158023913#1 158023913#3 22972195#2 465376239 465376255#2 190447767 190447766#1 1151064403 1151064402#0 465376254#0 465376254#3 222328410 -6228081#1 30720544#0 30720544#1 42103020#0 42103020#2 111251382#1 111251382#3 1100889498 1100824590#1 176043806#0 176043806#2 176043807#0 176043807#3"/>
        <stop busStop="11178436224" duration="30.00"/>
        <stop busStop="3869306764" duration="30.00"/>
        <stop busStop="3869306762" duration="30.00"/>
        <stop busStop="3869306759" duration="30.00"/>
    </vehicle>

    <vehicle id="8_bus_100:1" type="pt_bus" depart="55.00" departLane="0" arrival="615.00">
        <route edges="1125871417 1125871619#1 1125871619#2 1125871619#3 1125871619#4 236092221#0 236092221#1 342968607#1 1170522572#0 461526152#1 1126234503#0 1126237668#1 1079495669#1 340498982#0 1170522567#0 251884680#0 251884680#1 1126246695#1 339201217 1126244314#0 1126244314#1 54048862#2 831694400#0 831694400#1 23013165 4611698 202156994#0 72157174#1 171826984#2 195401006 1113401735#1"/>
        <stop busStop="3869306771" duration="30.00"/>
        <stop busStop="3870475228" duration="30.00"/>
        <stop busStop="3867910421" duration="30.00"/>
        <stop busStop="1827996414" duration="30.00"/>
        <stop busStop="768074068" duration="30.00"/>
    </vehicle>

    <vehicle id="7_bus_100:0" type="pt_bus" depart="52.00" departLane="0" arrival="621.00">
        <route edges="625647962 415280722 195401013#2 171826985#2 24913519#1 1144362247 541763975 4067932 339201219 541763974 61584187#1 15971197 4611699#0 4611699#1 1149417521#1 169195795#0 169195795#1 1217865061#0 1113726463 1077923225#0 882389494#1 340498988#0 188386313#1 1119935327#1 1119935543#0 1119936840#1 1119937599#1 1119937599#2 1119937599#3"/>
        <stop busStop="270727260" duration="30.00"/>
        <stop busStop="4163212867" duration="30.00"/>
        <stop busStop="1827996417" duration="30.00"/>
        <stop busStop="3867910420" duration="30.00"/>
        <stop busStop="271296293" duration="30.00"/>
        <stop busStop="272408975" duration="30.00"/>
        <stop busStop="271373068" duration="30.00"/>
    </vehicle>

    <vehicle id="18_tram_M5:1" type="pt_tram" depart="132.00" departLane="0" arrival="629.00">
        <route edges="143891040#0 143891040#2 143891040#4 143891040#5 143891040#6 143891040#7 101699676#1 101699676#2 101699676#4 101699676#13 30721656#0 30721656#1 30721656#2 30721656#3 30721656#4 421641065#0 421641065#1 421641065#2 1053166657 30123145#1 30123145#2 30123145#3 803941122 23960874#3 1284740820 1284740821#1 1284740821#2 144014234#0 144014234#2 167523653#0 167523653#1 167523653#2 22962554#1 150394036 1051100384"/>
        <stop busStop="1668717159" duration="30.00"/>
        <stop busStop="963600646" duration="30.00"/>
        <stop busStop="1633759760" duration="30.00"/>
        <stop busStop="30731481" duration="30.00"/>
    </vehicle>

    <vehicle id="63_train_RB23:1" type="pt_train" depart="441.00" departLane="0" arrival="638.00">
        <route edges="72984396 32590644#1 32590651#1 32590900#1 25946666 1135947857 25946668#1 421021565#1"/>
        <stop busStop="2603331683" duration="30.00"/>
    </vehicle>

    <vehicle id="47_light_rail_S9:0" type="pt_light_rail" depart="353.00" departLane="0" arrival="647.00">
        <route edges="72984388 32590498#1 32590501#1 32590648 32590649#0 32590649#1 32590649#2 32590640#1 32590640#2 32590653#1 32590904#1 25946685#1 25946685#2 25946678 25946662#1 25946662#2 29384521#1 29384522#1 29384522#2 29384522#3"/>
        <stop busStop="1745157971" duration="30.00"/>
        <stop busStop="2603331695" duration="30.00"/>
    </vehicle>

    <vehicle id="75_light_rail_S26:0" type="pt_light_rail" depart="561.00" departLane="0" arrival="664.00">
        <route edges="237751551"/>
        <stop busStop="1930939368" duration="30.00"/>
    </vehicle>

    <vehicle id="76_light_rail_S26:1" type="pt_light_rail" depart="565.00" departLane="0" arrival="668.00">
        <route edges="463462759"/>
        <stop busStop="474368351" duration="30.00"/>
    </vehicle>

    <vehicle id="48_light_rail_S9:1" type="pt_light_rail" depart="362.00" departLane="0" arrival="669.00">
        <routeDistribution>
            <route replacedOnEdge="25946658#1" replacedOnIndex="4" reason="railSignal:11426127274_0" replacedAtTime="464.00" probability="0" edges="4471823#0 4471823#1 4471823#2 4471823#3 25946658#1 25946658#2 196844848 -25946685#1 -195397542 25946681 25946682#1 25946682#2 32590902#1 32590894#1 32590894#2 4471817#1 4471817#2 4471817#3 32590638#1 32590645 32590647#0 32590647#1 32590494#1 32590496#1"/>
            <route edges="4471823#0 4471823#1 4471823#2 4471823#3 25946658#1 25946658#2 4471818#1 25946681 25946682#1 25946682#2 32590902#1 32590894#1 32590894#2 4471817#1 4471817#2 4471817#3 32590638#1 32590645 32590647#0 32590647#1 32590494#1 32590496#1"/>
        </routeDistribution>
        <stop busStop="27412232" duration="30.00"/>
        <stop busStop="27411240" duration="30.00"/>
    </vehicle>

    <vehicle id="55_train_RE2:1" type="pt_train" depart="389.00" departLane="0" arrival="675.00">
        <route edges="25386365#0 25386365#1 442921387#0 442921387#1 25946656#1 25946673#1 25946674#1 25946676 32590898#1 32590890#1 32590636#1"/>
        <stop busStop="29805120" duration="30.00"/>
        <stop busStop="2776873647" duration="30.00"/>
    </vehicle>

    <vehicle id="64_train_RE7:0" type="pt_train" depart="474.00" departLane="0" arrival="716.00">
        <route edges="72984396 32590644#1 32590651#1 32590900#1 25946666 1135947857 25946668#1 421021565#1"/>
        <stop busStop="2603331683" duration="30.00"/>
    </vehicle>

    <vehicle id="68_tram_M5:2" type="pt_tram" depart="497.00" departLane="0" arrival="716.00">
        <route edges="1051100385#0 1051100385#1 1051100385#3 1051100385#4 1051100386 150394035#1 150394035#4 1284740822#0 1284740822#1 1284740822#2 1052827282#0 1052827282#3 10597134#1 421641064"/>
        <stop busStop="4673135647" duration="30.00"/>
        <stop busStop="1633759766" duration="30.00"/>
    </vehicle>

    <vehicle id="67_train_RB14:0" type="pt_train" depart="485.00" departLane="0" arrival="771.00">
        <route edges="25386365#0 25386365#1 442921387#0 442921387#1 25946656#1 25946673#1 25946674#1 25946676 32590898#1 32590890#1 32590636#1"/>
        <stop busStop="29805120" duration="30.00"/>
        <stop busStop="2776873647" duration="30.00"/>
    </vehicle>

    <vehicle id="17_tram_M5:0" type="pt_tram" depart="131.00" departLane="0" arrival="775.00">
        <route edges="1051100385#0 1051100385#1 1051100385#3 1051100385#4 1051100386 150394035#1 150394035#4 1284740822#0 1284740822#1 1284740822#2 1052827282#0 1052827282#3 10597134#1 421641064 30721657#1 30721657#2 30721657#3 1210499523 46140385 46140379#0 46140379#1 46140379#2 46140393 101699679#0 101699679#1 101699679#2 101699679#4 101699679#12 101699679#13 1044592563#1 1044592563#2 154321040#2 154321040#3 154321040#4 154321040#5"/>
        <stop busStop="4673135647" duration="30.00"/>
        <stop busStop="1633759766" duration="30.00"/>
        <stop busStop="1661927028" duration="30.00"/>
        <stop busStop="1862699772" duration="30.00"/>
    </vehicle>

    <vehicle id="69_tram_M5:3" type="pt_tram" depart="505.00" departLane="0" arrival="789.00">
        <route edges="803941122 23960874#3 1284740820 1284740821#1 1284740821#2 144014234#0 144014234#2 167523653#0 167523653#1 167523653#2 22962554#1 150394036 1051100384"/>
        <stop busStop="1633759760" duration="30.00"/>
        <stop busStop="30731481" duration="30.00"/>
    </vehicle>

    <vehicle id="72_train_RB14:1" type="pt_train" depart="525.00" departLane="0" arrival="796.00">
        <route edges="72984396 32590644#1 32590651#1 32590900#1 25946666 1135947857 25946668#1 421021565#1"/>
        <stop busStop="2603331683" duration="30.00"/>
    </vehicle>

    <vehicle id="77_train_RE7:1" type="pt_train" depart="574.00" departLane="0" arrival="860.00">
        <route edges="25386365#0 25386365#1 442921387#0 442921387#1 25946656#1 25946673#1 25946674#1 25946676 32590898#1 32590890#1 32590636#1"/>
        <stop busStop="29805120" duration="30.00"/>
        <stop busStop="2776873647" duration="30.00"/>
    </vehicle>

    <vehicle id="74_bus_147:1" type="pt_bus" depart="548.00" departLane="0" arrival="1043.00">
        <route edges="1127597264#1 1127596842#2 120675240#1 120675240#3 120675240#4 1263204721 -8008608 -4611696#5 -4611696#4 -4611696#3 -23755950#1 -1127602336 -66071366#4 4773029#0 4773029#1 4773029#2 4773029#3 4773029#4 28251222#0 28251222#1 1171295120#1 169195795#0 169195795#1 1217865061#0 1113726463 1077923225#0 882389494#1 340498988#0 169999355#1 -11483007#2 22972195#2 465376239 465376255#2 190447767 190447766#1 1151064403 1151064402#0 465376254#0 465376254#3 222328410 -6228081#1 30720544#0 30720544#1 42103020#0 42103020#2 111251382#1 111251382#3 1100889498 1100824590#1 176043806#0 176043806#2 176043807#0 176043807#3"/>
        <stop busStop="3867910423" duration="30.00"/>
        <stop busStop="9681836927" duration="30.00"/>
        <stop busStop="-3869306773" duration="30.00"/>
    </vehicle>

    <vehicle id="78_bus_300:0" type="pt_bus" depart="583.00" departLane="0" arrival="1079.00">
        <route edges="309479676 4611726#1 1132678576#0 606078065#1 1112054538 61583424#1 534588621#0 534588621#1 284493291#0 24913519#1 1144362247 541763975 4067932 339201219 541763974 61584187#1 15971197 4611699#0 4611699#1 1149417521#1 169195795#0 169195795#1 1217865061#0 1113726463 1077923225#0 882389494#1 340498988#0 188386313#1 1119935327#1 1119935543#0 24913267#1 24913267#3 326116286#0 4402014#3 326116285#4"/>
        <stop busStop="3867910417" duration="30.00"/>
        <stop busStop="6682293818" duration="30.00"/>
        <stop busStop="3867910420" duration="30.00"/>
        <stop busStop="271296293" duration="30.00"/>
        <stop busStop="272408975" duration="30.00"/>
    </vehicle>

    <vehicle id="79_bus_300:1" type="pt_bus" depart="593.00" departLane="0" arrival="1102.00">
        <route edges="-326116285#4 -4402014#3 -326116286#1 -24913267#3 -24913267#2 342968607#1 1170522572#0 461526152#1 1126234503#0 1126237668#1 1079495669#1 340498982#0 1170522567#0 251884680#0 251884680#1 1126246695#1 339201217 1126244314#0 1126244314#1 54048862#2 831694400#0 831694400#1 23013165 4611698 202156994#0 606078072#1 -534588621#1 -534588621#0 606078071#0 61583423#1 -751595930 82654059#0 82654059#1 1132678575#1 1133457766"/>
        <stop busStop="-4692172068" duration="30.00"/>
        <stop busStop="3869306771" duration="30.00"/>
        <stop busStop="3870475228" duration="30.00"/>
        <stop busStop="3867910421" duration="30.00"/>
        <stop busStop="-6744165042" duration="30.00"/>
    </vehicle>

    <vehicle id="73_bus_147:0" type="pt_bus" depart="535.00" departLane="0" arrival="1116.00">
        <route edges="-176043807#6 -176043807#0 -176043806#2 -176043806#0 -1100824590#1 -1100824590#0 -111251382#3 -111251382#2 541295978#1 1097921784#1 -541295974#0 -222328410 -465376254#3 -465376254#2 -1151064402#1 -4402228 190447768#1 195411602#0 195411602#1 465376240#0 195411604 11483007#0 -1119933622 461526152#1 1126234503#0 1126237668#1 1079495669#1 340498982#0 1170522567#0 251884680#0 251884680#1 -4611694#1 -1126465845 -1126465703#0 -1159156576#1 -1159156576#0 4611696#4 4611696#5 8008608 -1263204721 -120675240#4 -120675240#3 -120675240#2 -43156728#1 -1127596842#0 -1127597264#0 -755551646#0"/>
        <stop busStop="-3869306760" duration="30.00"/>
        <stop busStop="-3869306761" duration="30.00"/>
        <stop busStop="-3869306765" duration="30.00"/>
        <stop busStop="-9023382187" duration="30.00"/>
    </vehicle>

    <vehicle id="25_tram_M1:0" type="pt_tram" depart="160.00" departLane="0" arrival="1198.00">
        <route edges="144014230#3 207364191#1 207364191#2 144014242#1 167272512#0 167272512#1 167272512#2 167272512#3 167272512#4 167272512#7 167272512#8 167272512#9 167272512#10 195411594#1 195411594#2 195411594#3 143891040#0 143891040#2 143891040#4 143891040#5 143891040#6 143891040#7 101699676#1 101699676#2 101699676#4 101699676#13 30721656#0 30721656#1 30721656#2 30721656#3 30721656#4 421641065#0 421641065#1 421641065#2 28341062#0 28341062#1 421641064 30721657#1 30721657#2 30721657#3 46140383#0 46140383#1 46140383#2 143931935#0 143931935#1 153537606#1 153537606#2 153537606#3 153537606#4"/>
        <stop busStop="247603398" duration="30.00"/>
        <stop busStop="1673526976" duration="30.00"/>
        <stop busStop="1823298700" duration="30.00"/>
        <stop busStop="30731700" duration="30.00"/>
        <stop busStop="1668717159" duration="30.00"/>
        <stop busStop="963600646" duration="30.00"/>
        <stop busStop="1633759766" duration="30.00"/>
        <stop busStop="1662153916" duration="30.00"/>
    </vehicle>

    <vehicle id="26_tram_M1:1" type="pt_tram" depart="167.00" departLane="0" arrival="1503.00">
        <route edges="144014230#3 207364191#1 207364191#2 144014242#1 167272512#0 167272512#1 167272512#2 167272512#3 167272512#4 167272512#7 167272512#8 167272512#9 167272512#10 195411594#1 195411594#2 195411594#3 143891040#0 143891040#2 143891040#4 143891040#5 143891040#6 143891040#7 101699676#1 101699676#2 101699676#4 101699676#13 30721656#0 30721656#1 30721656#2 30721656#3 30721656#4 421641065#0 421641065#1 421641065#2 28341062#0 28341062#1 421641064 30721657#1 30721657#2 30721657#3 46140383#0 46140383#1 46140383#2 143931935#0 143931935#1 153537606#1 153537606#2 153537606#3 153537606#4"/>
        <stop busStop="247603398" duration="30.00"/>
        <stop busStop="1673526976" duration="30.00"/>
        <stop busStop="1823298700" duration="30.00"/>
        <stop busStop="30731700" duration="30.00"/>
        <stop busStop="1668717159" duration="30.00"/>
        <stop busStop="963600646" duration="30.00"/>
        <stop busStop="1633759766" duration="30.00"/>
        <stop busStop="1662153916" duration="30.00"/>
    </vehicle>

    <vehicle id="27_tram_M1:2" type="pt_tram" depart="165.00" departLane="0" arrival="1550.00">