<?xml version="1.0" encoding="UTF-8"?>

<!-- generated on 2024-07-01 13:02:54 by Eclipse SUMO sumo Version 1.19.0
<configuration xmlns:xsi="http://www.w3.org/2001/XMLSchema-instance" xsi:noNamespaceSchemaLocation="http://sumo.dlr.de/xsd/sumoConfiguration.xsd">

    <input>
        <net-file value="C:\Users\Jaime\Sumo\2024-07-01-13-02-42\osm.net.xml.gz"/>
        <route-files value="C:\Users\Jaime\Sumo\2024-07-01-13-02-42\trips.trips.xml"/>
        <additional-files value="C:\Users\Jaime\Sumo\2024-07-01-13-02-42\osm_stops.add.xml"/>
    </input>

    <output>
        <vehroute-output value="C:\Users\Jaime\Sumo\2024-07-01-13-02-42\vehroutes.xml"/>
        <stop-output value="C:\Users\Jaime\Sumo\2024-07-01-13-02-42\stopinfos.xml"/>
    </output>

    <time>
        <begin value="0.0"/>
    </time>

    <processing>
        <ignore-route-errors value="true"/>
    </processing>

    <routing>
        <device.rerouting.adaptation-interval value="0"/>
    </routing>

    <report>
        <aggregate-warnings value="5"/>
        <error-log value="C:\Users\Jaime\Sumo\2024-07-01-13-02-42\trips.trips.xml.errorlog"/>
        <no-step-log value="true"/>
    </report>

</configuration>
-->

<routes xmlns:xsi="http://www.w3.org/2001/XMLSchema-instance" xsi:noNamespaceSchemaLocation="http://sumo.dlr.de/xsd/routes_file.xsd">
    <vehicle id="5_bus_N1158:0" type="pt_bus" depart="47.00" departLane="0" arrival="128.00">
        <route edges="35931470#0 35916356#0 35916356#1 35916356#2 35916356#4 280430700#0 280430700#1 538537997#0 -585068911"/>
        <stop busStop="-4214996399" duration="30.00"/>
    </vehicle>

    <vehicle id="6_bus_N1158:1" type="pt_bus" depart="52.00" departLane="0" arrival="135.00">
        <route edges="585068911 862827151#0 862827151#1 635509039#1 358086112 191457583 358055204#0 357190808#1"/>
        <stop busStop="4214996399" duration="30.00"/>
    </vehicle>

    <vehicle id="11_bus_M-161:1" type="pt_bus" depart="129.00" departLane="0" arrival="160.00">
        <route edges="538537997#0"/>
        <stop busStop="2845457213" duration="30.00"/>
    </vehicle>

    <vehicle id="25_bus_92:0" type="pt_bus" depart="204.00" departLane="0" arrival="272.00">
        <route edges="372818284#1"/>
        <stop busStop="7775297888" duration="30.00"/>
    </vehicle>

    <vehicle id="7_train_AVE:0" type="pt_train" depart="55.00" departLane="0" arrival="318.00">
        <route edges="400333419 75307993#1 888582762"/>
        <stop busStop="2608380462" duration="30.00"/>
    </vehicle>

    <vehicle id="23_bus_C2:0" type="pt_bus" depart="173.00" departLane="0" arrival="352.00">
        <route edges="35931470#0 372818284#1 358055210#0 35931000#1 256558103#1 373389057 358036176#0 358036176#2 358036176#3 190798145 184109465#0"/>
        <stop busStop="2011648622" duration="30.00"/>
    </vehicle>

    <vehicle id="12_train_AVANT:0" type="pt_train" depart="102.00" departLane="0" arrival="385.00">
        <route edges="400333419 75307993#1 888582762"/>
        <stop busStop="2608380462" duration="30.00"/>
    </vehicle>

    <vehicle id="27_bus_91:1" type="pt_bus" depart="232.00" departLane="0" arrival="388.00">
        <route edges="372818284#1 343436112#0 358055211#2 191457580#1"/>
        <stop busStop="7775297888" duration="30.00"/>
    </vehicle>

    <vehicle id="8_bus_M-113:0" type="pt_bus" depart="58.00" departLane="0" arrival="406.00">
        <route edges="1188686208#0 373379865 343435994#0 343435994#1 343435994#2 343435994#4 190525290#4 205029948#1 374410146#1 374410125 360340117#1 374410134#0 360340122#0 360340122#1 360340126#0 360340126#1 360340126#2 374410129 360340114 373389048 373389052 374410133#1 374410132 373389056#1 373389056#3 373389056#4 374410138#0 374410138#1 360340130#0 360340130#1 373389054#0 373389054#2 373389046#1 373389045 373389038#1 373389051#1 360339436#0 360339436#1 360339436#2 373389042 360339435 373389049#1 373389044 357734820 256539076#0 358303736#1 374525510#1 374525510#2 360339429 360339432 374527983#1 360339431#0 360339431#1 359150747#0 359150747#1 99006810#0 99006810#2 99006810#3"/>
        <stop busStop="7772624491" duration="30.00"/>
    </vehicle>

    <vehicle id="22_bus_C1:0" type="pt_bus" depart="166.00" departLane="0" arrival="451.00">
        <route edges="191173976#0 190525290#0 190525290#2 190525290#4 358055211#2 191457580#1"/>
        <stop busStop="3674747255" duration="30.00"/>
    </vehicle>

    <vehicle id="28_bus_40:0" type="pt_bus" depart="227.00" departLane="0" arrival="483.00">
        <route edges="349882515#0 349882515#2 349882515#3 373879411#0 373879411#1 373879411#2 373879411#3 292167395#1 1202270864#0 1188810219#0 1031928919#0 1031928919#1 1031928919#2 770855642#0 292167397"/>
        <stop busStop="5348742178" duration="30.00"/>
    </vehicle>

    <vehicle id="13_bus_1:0" type="pt_bus" depart="119.00" departLane="0" arrival="495.00">
        <route edges="191173976#0 190525290#0 190525290#2 190525290#4 205029948#1 374410146#1 374410125 360340117#1 374410134#0 360340122#0 360340122#1 360340126#0 360340126#1 360340126#2 374410129 360340114 373389048 373389052 374410133#1 374410132 373389056#1 373389056#3 373389056#4 374410138#0 374410138#1 360340130#0 360340130#1 373389054#0 373389054#2 373389046#1 373389045 373389038#1 373389051#1 360339436#0 360339436#1 360339436#2 373389042 360339435 373389049#1 373389044 32257968#0 32257968#1 32257968#2 358844251#1 358844251#3 358844251#4 358844251#5 358844251#6 358844251#7 358844251#8 256535418#0 256535418#2 256535418#3 360464238#0 360464238#1 360464219#1 360464219#3"/>
        <stop busStop="3674747255" duration="30.00"/>
    </vehicle>

    <vehicle id="9_bus_M-113:1" type="pt_bus" depart="60.00" departLane="0" arrival="517.00">
        <route edges="236020411#0 256535557 190824293 570001640#0 570001640#1 53590479 1183634186#0 1183634186#1 1183634186#2 1183634186#3 1183634186#4 1183634186#5 358844255#0 358844255#2 372798466 256539072 372823140 343436007#0 369995508#0 369466763 369466788#0 369466788#2 369466788#3 369466788#4 369466788#5 360475994 369466779#0 369466779#1 369466779#2 360475999#0 360475999#2 369466771#0 369466771#1 360475997#0 360475997#2 360475997#3 360475997#5 343432590#0 369466755#0 360475981#0 360475981#2 369466746 360475979#1 360475979#2 360475978#0 360475978#2 27593742#0 360475980 27593740#1 360478605 360478618#0 360478618#1 360478618#2 190524677 358086120#0 292167397"/>
        <stop busStop="8660674227" duration="30.00"/>
    </vehicle>

    <vehicle id="0_bus_VJA-O80:0" type="pt_bus" depart="3.00" departLane="0" arrival="520.00">
        <route edges="585068943 -511082413 -862827151#0 -538537997#0 -280430700#2 -280430700#0 358086113#0 358086113#2 1201356844#0 1201356844#1 1201356844#2 1201356844#3 224595855 224595862#0 224595862#1 224595862#2 224595862#3 224595862#4 -35773484#1 54179791#0 54179791#2 54179791#3 185127034#1 185127034#2 373389056#4 374410138#0 374410138#1 360340130#0 360340130#1 373389054#0 35962366#0 373401528#1 373401528#2 360475997#0 360475997#2 360475997#3 360475997#5 343432590#0 369466755#0 360475981#0 360475981#2 369466746 360475979#1 360475979#2 360475978#0 360475978#2 27593742#0 360475980 27593740#1 360478605 360478618#0 360478618#1 360478618#2 190524677 358086120#0 292167397"/>
        <stop busStop="4214996426" duration="30.00"/>
    </vehicle>

    <vehicle id="26_bus_91:0" type="pt_bus" depart="218.00" departLane="0" arrival="523.00">
        <route edges="191173976#0 190525290#0 190525290#2 190525290#4 358055211#2 191457582#0 372818284#1"/>
        <stop busStop="3674747255" duration="30.00"/>
    </vehicle>

    <vehicle id="18_bus_N1:0" type="pt_bus" depart="136.00" departLane="0" arrival="534.00">
        <route edges="191173976#0 190525290#0 190525290#2 190525290#4 205029948#1 374410146#1 374410125 360340117#1 374410134#0 360340122#0 360340122#1 360340126#0 360340126#1 360340126#2 374410129 360340114 373389048 373389052 374410133#1 374410132 373389056#1 373389056#3 373389056#4 374410138#0 374410138#1 360340130#0 360340130#1 373389054#0 373389054#2 373389046#1 373389045 373389038#1 373389051#1 360339436#0 360339436#1 360339436#2 373389042 360339435 373389049#1 373389044 357734820 256539076#0 358303736#1 374525510#1 374525510#2 360339429 360339432 374527983#1 360339431#0 360339431#1 359150747#0 359150747#1 99006810#0 99006810#2 99006810#3"/>
        <stop busStop="3674747255" duration="30.00"/>
    </vehicle>

    <vehicle id="14_light_rail_L1:0" type="pt_light_rail" depart="125.00" departLane="0" arrival="538.00">
        <route edges="-504224086#2 -504224086#1 -504224086#0 256045745"/>
        <stop busStop="-4408159190" duration="30.00"/>
        <stop busStop="-4408155456" duration="30.00"/>
        <stop busStop="-1625341615" duration="30.00"/>
        <stop busStop="8568996859" duration="30.00"/>
        <stop busStop="-10765517126" duration="30.00"/>
        <stop busStop="-2609573405" duration="30.00"/>
    </vehicle>

    <vehicle id="10_bus_M-161:0" type="pt_bus" depart="93.00" departLane="0" arrival="588.00">
        <route edges="538537997#0 -538537997#0 -280430700#2 -280430700#0 358086113#0 358086113#2 1201356844#0 1201356844#1 1201356844#2 1201356844#3 224595855 224595862#0 224595862#1 224595862#2 224595862#3 224595862#4 -35773484#1 54179791#0 54179791#2 54179791#3 185127034#1 185127034#2 373389056#4 374410138#0 374410138#1 360340130#0 360340130#1 373389054#0 35962366#0 373401528#1 373401528#2 360475997#0 360475997#2 360475997#3 360475997#5 343432590#0 369466755#0 360475981#0 360475981#2 369466746 360475979#1 360475979#2 360475978#0 360475978#2 27593742#0 360475980 27593740#1 360478605 360478618#0 360478618#1 360478618#2 190524677 358086120#0 292167397"/>
        <stop busStop="2845457213" duration="30.00"/>
    </vehicle>

    <vehicle id="29_bus_40:1" type="pt_bus" depart="253.00" departLane="0" arrival="591.00">
        <route edges="1188686208#0 1188686208#1 557959491 23051095#0 190524677 457202751 23051293#0 23051293#1 373879404#1 373879408#1 373879392#1 373879405#1 373879393#1 1202270863#0 1202270863#2 373879391#1 373879391#2 373879391#3 373879391#4 373879391#5 373879391#6 373879391#7 373879412#1 373879412#2 373879412#3 373879399#0 373879399#1 373879409#1 373879409#2 373879409#3 373879406#1 373879396#1"/>
        <stop busStop="3762438183" duration="30.00"/>
    </vehicle>

    <vehicle id="2_train_C-1:1" type="pt_train" depart="15.00" departLane="0" arrival="592.00">
        <route edges="835577328 400333427"/>
        <stop busStop="7571619025" duration="30.00"/>
        <stop busStop="6535024545" duration="30.00"/>
    </vehicle>

    <vehicle id="20_bus_3:0" type="pt_bus" depart="160.00" departLane="0" arrival="600.00">
        <route edges="191173976#0 190525290#0 190525290#2 190525290#4 205029948#1 374410146#1 374410125 360340117#1 374410134#0 360340122#0 360340122#1 360340126#0 360340126#1 360340126#2 374410129 360340114 373389048 373389052 374410133#1 374410132 373389056#1 373389056#3 373389056#4 374410138#0 374410138#1 360340130#0 360340130#1 373389054#0 373389054#2 373389046#1 373389045 373389038#1 373389051#1 360339436#0 360339436#1 360339436#2 373389042 360339435 373389049#1 373389044 357734820 256539076#0 358303736#1 374525510#1 374525510#2 360339429 360339432 374527983#1 360339431#0 360339431#1 359150747#0 359150747#1 99006810#0 99006810#2 99006810#3"/>
        <stop busStop="3674747255" duration="30.00"/>
    </vehicle>

    <vehicle id="17_bus_N2:0" type="pt_bus" depart="133.00" departLane="0" arrival="601.00">
        <route edges="77609167#0 77609182#0 77609182#1 77609182#2 637617962 191099611#0 191099601#0 205029952 358303760 98726577#0 98726577#1 372800310#1 372800311 374536772#2 372800312#0 191099602 23161432 358344120#0 358344120#1 190525291 23161450#0 348595597 359285569"/>
        <stop busStop="3754070340" duration="30.00"/>
    </vehicle>

    <vehicle id="21_bus_3:1" type="pt_bus" depart="165.00" departLane="0" arrival="624.00">
        <route edges="236020411#0 256535557 190824293 570001640#0 570001640#1 53590479 1183634186#0 1183634186#1 1183634186#2 1183634186#3 1183634186#4 1183634186#5 358844255#0 358844255#2 372798466 256539072 372823140 343436007#0 369995508#0 369466763 369466788#0 369466788#2 369466788#3 369466788#4 369466788#5 360475994 369466779#0 369466779#1 369466779#2 360475999#0 360475999#2 369466771#0 369466771#1 360475997#0 360475997#2 360475997#3 360475997#5 343432590#0 369466755#0 360475981#0 360475981#2 369466746 360475979#1 360475979#2 360475978#0 360475978#2 27593742#0 360475980 256558103#1 373389057 358036176#0 358036176#2 358036176#3 190798145 184109465#0"/>
        <stop busStop="3788852333" duration="30.00"/>
    </vehicle>

    <vehicle id="19_bus_N1:1" type="pt_bus" depart="139.00" departLane="0" arrival="625.00">
        <route edges="236020411#0 256535557 190824293 570001640#0 570001640#1 53590479 1183634186#0 1183634186#1 1183634186#2 1183634186#3 1183634186#4 1183634186#5 358844255#0 358844255#2 372798466 256539072 372823140 343436007#0 369995508#0 369466763 369466788#0 369466788#2 369466788#3 369466788#4 369466788#5 360475994 369466779#0 369466779#1 369466779#2 360475999#0 360475999#2 369466771#0 369466771#1 360475997#0 360475997#2 360475997#3 360475997#5 343432590#0 369466755#0 360475981#0 360475981#2 369466746 360475979#1 360475979#2 360475978#0 360475978#2 27593742#0 360475980 256558103#1 373389057 358036176#0 358036176#2 358036176#3 190798145 184109465#0"/>
        <stop busStop="3788852333" duration="30.00"/>
    </vehicle>

    <vehicle id="16_bus_1:1" type="pt_bus" depart="132.00" departLane="0" arrival="658.00">
        <route edges="1186605083#0 1186605083#1 360464237 360464233#0 99009671#0 99009671#1 99009671#2 99009671#3 99009671#4 99009671#5 99009671#6 99009671#7 256544043 190824293 570001640#0 570001640#1 53590479 1183634186#0 1183634186#1 1183634186#2 1183634186#3 1183634186#4 1183634186#5 358844255#0 358844255#2 372798466 256539072 372823140 343436007#0 369995508#0 369466763 369466788#0 369466788#2 369466788#3 369466788#4 369466788#5 360475994 369466779#0 369466779#1 369466779#2 360475999#0 360475999#2 369466771#0 369466771#1 360475997#0 360475997#2 360475997#3 360475997#5 343432590#0 369466755#0 360475981#0 360475981#2 369466746 360475979#1 360475979#2 360475978#0 360475978#2 27593742#0 360475980 256558103#1 373389057 358036176#0 358036176#2 358036176#3 190798145 184109465#0"/>
        <stop busStop="1145442066" duration="30.00"/>
    </vehicle>

    <vehicle id="32_bus_27:0" type="pt_bus" depart="326.00" departLane="0" arrival="666.00">
        <route edges="360475990#0 360475990#2 360475990#3 313109470#0 190525290#0 190525290#2 190525290#4 205029948#1 374410146#1 374410125 360340117#1 374410134#0 360340122#0 360340122#1 360340126#0 360340126#1 360340126#2 374410129 360340114 373389048 373389052 374410133#1 374410132 373389056#1 373389056#3 373389056#4 374410138#0 374410138#1 360340130#0 360340130#1 373389054#0 373389054#2 373389046#1 373389045 373389038#1 373389051#1 360339436#0 360339436#1 360339436#2 373389042 360339435 373389049#1 373389044 357734820 256539076#0 358303736#1 374525510#1 374525510#2 360339429 360339432 374527983#1 360339431#0 360339431#1 359150747#0 359150747#1 99006810#0 99006810#2 99006810#3"/>
        <stop busStop="2011648615" duration="30.00"/>
    </vehicle>

    <vehicle id="39_bus_22:1" type="pt_bus" depart="381.00" departLane="0" arrival="671.00">
        <route edges="23161437#0 23161437#3 1204000535#0 99014164#0 99014164#1 99014164#3 99014164#4 99014164#6 99014164#7 99014164#8 99000843#1 99000843#2 297037199#0 297037199#2 1188809858 1188809857 1188809856 297037200#0 297037200#2 297037200#3 99009653 360464241#0 360464241#1 99009671#0 99009671#1 99009671#2 99009671#3 99009671#4 99009671#5 99009671#6 99009671#7 99006810#0 99006810#2 99006810#3"/>
        <stop busStop="3638702944" duration="30.00"/>
    </vehicle>

    <vehicle id="15_light_rail_L2:0" type="pt_light_rail" depart="131.00" departLane="0" arrival="677.00">
        <route edges="436582153#0 436582153#1 436582153#2 694231732"/>
        <stop busStop="4344674995" duration="30.00"/>
        <stop busStop="3762485520" duration="30.00"/>
        <stop busStop="3762485517" duration="30.00"/>
        <stop busStop="4409558424" duration="30.00"/>
        <stop busStop="4409535923" duration="30.00"/>
        <stop busStop="10858781452" duration="30.00"/>
        <stop busStop="6018008455" duration="30.00"/>
        <stop busStop="6018008476" duration="30.00"/>
    </vehicle>

    <vehicle id="24_bus_A:0" type="pt_bus" depart="201.00" departLane="0" arrival="696.00">
        <route edges="236020411#0 256535557 190824293 570001640#0 570001640#1 53590479 1183634186#0 1183634186#1 1183634186#2 1183634186#3 1183634186#4 1183634186#5 358844255#0 358844255#2 372798466 256539072 372823140 343436007#0 369995508#0 369466763 369466788#0 369466788#2 369466788#3 369466788#4 369466788#5 360475994 369466779#0 369466779#1 35963330 373404522#1 373404522#2 373404545#1 373404545#2 373404544#1 373404543 360339436#0 360339436#1 360339436#2 373389042 360339435 373389049#1 373389044 32257968#0 32257968#1 32257968#2 23161420#0 358844253#0 358844254#0 358844254#1 1185084125#0 1185084125#1 372798458#0 344515363#1 344515363#2 344515363#3 359507074#0 359507074#1 359507076#0 359507076#1 359507076#2 359507076#4 359507076#5 359507075#0 359507075#2 359507075#3 675882655#0 357818511#0 357818511#1 1190835335#0 1190835335#1 1190835335#2 1190835335#4 1190835335#6 359284805#1 359284805#2 359284805#3 359284805#4 359284804#0 359284804#1 191457583 358055204#0 357190808#1"/>
        <stop busStop="3762423034" duration="30.00"/>
    </vehicle>

    <vehicle id="52_bus_VJA-019:0" type="pt_bus" depart="497.00" departLane="0" arrival="717.00">
        <route edges="862827151#1 -511082413 -862827151#0 -538537997#0 -280430700#2 -280430700#0 358086113#0 358086113#2 1201356844#0 1201356844#1 1201356844#2 343436018#1 343436020 359169374 359169375 1190835335#6 259218554#0 259218554#1 259218554#2 259218554#3 375043048#0 375043048#1 375043040 375043049#0 191099604#0 191099604#1 190525291 422207231 23161434#0 23161434#1 23161434#2 23161434#3 23161434#4 23161434#5 23161434#6"/>
        <stop busStop="10236258587" duration="30.00"/>
    </vehicle>

    <vehicle id="33_bus_27:1" type="pt_bus" depart="331.00" departLane="0" arrival="750.00">
        <route edges="236020411#0 256535557 190824293 570001640#0 570001640#1 53590479 1183634186#0 1183634186#1 1183634186#2 1183634186#3 1183634186#4 1183634186#5 358844255#0 358844255#2 372798466 54179263#0 360473093 372798461#0 372798461#1 -1184789027#1 -373368139#4 -373368139#2 -373368139#1 -373368139#0 -35963719 233192080 374416161#1 374416163 374416158 374416165#2 360498016 -192425728 373879411#1 373879411#2 373879411#3 292167395#1 1202270864#0 1188810219#0 1031928919#0 1031928919#1 1031928919#2 770855642#0 292167397"/>
        <stop busStop="3788852333" duration="30.00"/>
    </vehicle>

    <vehicle id="44_bus_7:0" type="pt_bus" depart="418.00" departLane="0" arrival="802.00">
        <route edges="360475990#0 360475990#2 360475990#3 313109470#0 190525290#0 190525290#2 190525290#4 205029948#1 374410146#1 374410125 360340117#1 374410134#0 360340122#0 360340122#1 360340126#0 360340126#1 360340126#2 374410129 360340114 373389048 373389052 374410133#1 374410132 373389056#1 373389056#3 373389056#4 374410138#0 374410138#1 360340130#0 360340130#1 373389054#0 373389054#2 373389046#1 373389045 373389038#1 373389051#1 360339436#0 360339436#1 360339436#2 373389042 360339435 373389049#1 373389044 357734820 256539076#0 358303736#1 374525510#1 374525510#2 360339429 360339432 374527983#1 360339431#0 360339431#1 99703366#0 99703366#1 190824293 651494743 343446214#0"/>
        <stop busStop="2011648615" duration="30.00"/>
    </vehicle>

    <vehicle id="42_bus_5:0" type="pt_bus" depart="389.00" departLane="0" arrival="824.00">
        <route edges="191173976#0 190525290#0 190525290#2 190525290#4 205029948#1 374410146#1 374410125 360340117#1 374410134#0 360340122#0 360340122#1 360340126#0 360340126#1 360340126#2 374410129 360340114 373389048 373389052 374410133#1 374410132 373389056#1 373389056#3 373389056#4 374410138#0 374410138#1 360340130#0 360340130#1 373389054#0 373389054#2 373389046#1 373389045 373389038#1 373389051#1 360339436#0 360339436#1 360339436#2 373389042 360339435 373389049#1 373389044 357734820 256539076#0 358303736#1 374525510#1 374525510#2 360339429 360339432 374527983#1 360339431#0 360339431#1 359150747#0 359150747#1 99006810#0 99006810#2 99006810#3"/>
        <stop busStop="3674747255" duration="30.00"/>
    </vehicle>

    <vehicle id="31_bus_31:1" type="pt_bus" depart="321.00" departLane="0" arrival="826.00">
        <route edges="236020411#0 256535557 190824293 570001640#0 570001640#1 343435990#0 343435990#1 343435990#2 343435990#3 343435990#4 343435990#6 61785184#0 61785184#1 358844251#7 358844251#8 99009652 297037203 297037201#0 297037201#1 1188809854 1188809853 297038354#0 297038354#2 343432604#0 343432604#1 343432604#2 938129117#0 190426008 45409819#0 45409819#1 99014157#0 99014157#1 99014157#2 99014157#3 99014157#5 99014157#7 99014157#8 99014157#9 1204000539#0 1204000534 1204000541 45409811#0 45409811#1 45409811#2 45409811#3 45409811#4 45409811#5 45409811#6 99017515#2"/>
        <stop busStop="3788852333" duration="30.00"/>
    </vehicle>

    <vehicle id="1_train_C-1:0" type="pt_train" depart="15.00" departLane="0" arrival="834.00">
        <route edges="-61653013 835577328"/>
        <stop busStop="-7567516122" duration="30.00"/>
        <stop busStop="7571619023" duration="30.00"/>
        <stop busStop="7571619025" duration="30.00"/>
    </vehicle>

    <vehicle id="30_bus_31:0" type="pt_bus" depart="303.00" departLane="1" arrival="839.00">
        <route edges="88504635#0 -99017523#4 -99017523#2 -99017523#1 -99017523#0 98885180#0 98885180#1 344740302#0 344740302#1 344740302#2 77609182#0 77609182#1 77609182#2 357759046#0 205029946#0 205029946#1 205029946#2 372798455 358089857#0 149032230#0 149032233 190524657#0 190524657#2 358303732#0 358303732#1 1185084123 372798456#0 23051262#0 358303736#1 374525510#1 374525510#2 360339429 360339432 374527983#1 360339431#0 360339431#1 359150747#0 359150747#1 99006810#0 99006810#2 99006810#3"/>
        <stop busStop="-5417047630" duration="30.00"/>
    </vehicle>

    <vehicle id="48_bus_10:0" type="pt_bus" depart="443.00" departLane="0" arrival="855.00">
        <route edges="191173976#0 190525290#0 190525290#2 190525290#4 205029948#1 374410146#1 374410125 360340117#1 374410134#0 360340122#0 360340122#1 360340126#0 360340126#1 360340126#2 374410129 360340114 373389048 373389052 374410133#1 374410132 373389056#1 373389056#3 373389056#4 374410138#0 374410138#1 360340130#0 360340130#1 373389054#0 373389054#2 373389046#1 373389045 373389038#1 373389051#1 360339436#0 360339436#1 360339436#2 373389042 360339435 373389049#1 373389044 357734820 256539076#0 358303736#1 374525510#1 374525510#2 360339429 360339432 374527983#1 360339431#0 360339431#1 359150747#0 359150747#1 99006810#0 99006810#2 99006810#3"/>
        <stop busStop="3674747255" duration="30.00"/>
    </vehicle>

    <vehicle id="35_bus_20:1" type="pt_bus" depart="353.00" departLane="0" arrival="860.00">
        <route edges="360475990#0 360475990#2 360475990#3 313109470#0 190525290#0 190525290#2 190525290#4 205029948#1 374410146#1 374410125 360340117#1 374410134#0 360340122#0 360340122#1 360340126#0 360340126#1 360340126#2 374410129 360340114 373389048 373389052 374410133#1 374410132 373389056#1 373389056#3 373389056#4 374410138#0 374410138#1 360340130#0 360340130#1 373389054#0 373389054#2 373389046#1 373389045 373389038#1 373389051#1 360339436#0 360339436#1 360339436#2 373389042 360339435 373389049#1 373389044 32257968#0 32257968#1 32257968#2 358844251#1 358844251#3 358844251#4 358844251#5 358844251#6 358844251#7 358844251#8 99009652 297037203 297037201#0 297037201#1 1188809854 1188809853 297038354#0 297038354#2 343432604#0 343432604#1 343432604#2 938129117#0 190426008 938129118#0 938129123#1 938129123#2 938129123#3 190525281#0 190525281#1 110058627#0 110058627#1 110058627#3 110058627#4 358089888#0 358089888#1"/>
        <stop busStop="2011648615" duration="30.00"/>
    </vehicle>

    <vehicle id="43_bus_5:1" type="pt_bus" depart="406.00" departLane="0" arrival="866.00">
        <route edges="236020411#0 256535557 190824293 570001640#0 570001640#1 53590479 1183634186#0 1183634186#1 1183634186#2 1183634186#3 1183634186#4 1183634186#5 358844255#0 358844255#2 372798466 256539072 372823140 343436007#0 369995508#0 369466763 369466788#0 369466788#2 369466788#3 369466788#4 369466788#5 360475994 369466779#0 369466779#1 369466779#2 360475999#0 360475999#2 369466771#0 369466771#1 360475997#0 360475997#2 360475997#3 360475997#5 343432590#0 369466755#0 360475981#0 360475981#2 369466746 360475979#1 360475979#2 360475978#0 360475978#2 27593742#0 360475980 256558103#1 373389057 358036176#0 358036176#2 358036176#3 190798145 184109465#0"/>
        <stop busStop="3788852333" duration="30.00"/>
    </vehicle>

    <vehicle id="45_bus_7:1" type="pt_bus" depart="422.00" departLane="3" arrival="869.00">
        <route edges="190800508#0 360471709#1 35962646#0 256539072 372823140 343436007#0 369995508#0 369466763 369466788#0 369466788#2 369466788#3 369466788#4 369466788#5 360475994 369466779#0 369466779#1 369466779#2 360475999#0 360475999#2 369466771#0 369466771#1 360475997#0 360475997#2 360475997#3 360475997#5 343432590#0 369466755#0 360475981#0 360475981#2 369466746 360475979#1 360475979#2 360475978#0 360475978#2 27593742#0 360475980 256558103#1 373389057 358036176#0 358036176#2 358036176#3 190798145 184109465#0"/>
        <stop busStop="3762423034" duration="30.00"/>
    </vehicle>

    <vehicle id="36_bus_19:0" type="pt_bus" depart="362.00" departLane="0" arrival="874.00">
        <route edges="359284811 375043044#0 375043044#1 375043042 375043051#0 375043051#1 375043051#2 375043051#3 375043051#4 375043047#0 375043047#1 375043050#0 375043048#0 375043048#1 375043040 375043049#0 191099604#0 191099604#1 190525291 422207231 357759079#0 357759079#2 190429167#0 359353516#0 374534944#0 374534944#1 190429170#0 534660454 637617962 190429172#0 190429172#1 190429172#2 190429172#3 190429172#4 190429172#6 358303730#1 358303730#2 1204000541 1204000540#0 1204000537#0 534872271#1 534872271#2 534872271#3"/>
        <stop busStop="2011648626" duration="30.00"/>
    </vehicle>

    <vehicle id="38_bus_22:0" type="pt_bus" depart="371.00" departLane="0" arrival="874.00">
        <route edges="236020411#0 256535557 190824293 570001640#0 570001640#1 343435990#0 343435990#1 343435990#2 343435990#3 343435990#4 343435990#6 61785184#0 61785184#1 358844251#7 358844251#8 99009652 297037203 297037201#0 297037201#1 1188809854 1188809853 297038354#0 297038354#2 343432604#0 343432604#1 343432604#2 938129117#0 190426008 45409819#0 45409819#1 99014157#0 99014157#1 99014157#2 99014157#3 99014157#5 99014157#7 99014157#8 99014157#9 1204000539#0 1204000534 1204000541 1204000540#0 1204000537#0 534872271#1 534872271#2 534872271#3"/>
        <stop busStop="5395411782" duration="30.00"/>
    </vehicle>

    <vehicle id="34_bus_20:0" type="pt_bus" depart="346.00" departLane="0" arrival="883.00">
        <route edges="99000839#0 358089885#0 358089885#1 358089885#2 23161419#0 23161419#1 23161419#2 23161419#4 99000841#0 99000841#1 99000841#2 896209495#0 896209495#1 99000843#1 99000843#2 297037199#0 297037199#2 1188809858 1188809857 1188809856 297037200#0 297037200#2 297037200#3 99009653 360464241#0 360464241#1 99009671#0 99009671#1 99009671#2 99009671#3 99009671#4 99009671#5 99009671#6 99009671#7 256544043 190824293 570001640#0 570001640#1 53590479 1183634186#0 1183634186#1 1183634186#2 1183634186#3 1183634186#4 1183634186#5 358844255#0 358844255#2 372798466 54179263#0 360473093 372798461#0 372798461#1 -1184789027#1 -373368139#4 -373368139#2 -373368139#1 -373368139#0 -35963719 233192080 374416161#1 374416163 374416158 374416165#2 360498016 -192425728 373879411#1 373879411#2 373879411#3 292167395#1 1202270864#0 1188810219#0 1031928919#0 1031928919#1 1031928919#2 770855642#0 292167397"/>
        <stop busStop="2011638592" duration="30.00"/>
    </vehicle>

    <vehicle id="46_bus_9:0" type="pt_bus" depart="437.00" departLane="0" arrival="899.00">
        <route edges="191173976#0 190525290#0 190525290#2 190525290#4 205029948#1 374410146#1 374410125 360340117#1 374410134#0 360340122#0 360340122#1 360340126#0 360340126#1 360340126#2 374410129 360340114 373389048 373389052 374410133#1 374410132 373389056#1 373389056#3 373389056#4 374410138#0 374410138#1 360340130#0 360340130#1 373389054#0 373389054#2 373389046#1 373389045 373389038#1 373389051#1 360339436#0 360339436#1 360339436#2 373389042 360339435 373389049#1 373389044 357734820 256539076#0 358303736#1 374525510#1 374525510#2 360339429 360339432 374527983#1 360339431#0 360339431#1 359150747#0 359150747#1 99006810#0 99006810#2 99006810#3"/>
        <stop busStop="3674747255" duration="30.00"/>
    </vehicle>

    <vehicle id="3_train_C-2:0" type="pt_train" depart="48.00" departLane="0" arrival="901.00">
        <route edges="-61653013 835577328"/>
        <stop busStop="-7567516122" duration="30.00"/>
        <stop busStop="7571619023" duration="30.00"/>
        <stop busStop="7571619025" duration="30.00"/>
    </vehicle>

    <vehicle id="37_bus_19:1" type="pt_bus" depart="365.00" departLane="0" arrival="904.00">