<?xml version="1.0" encoding="UTF-8"?>

<!-- generated on 2024-07-01 13:08:08 by Eclipse SUMO sumo Version 1.19.0
<configuration xmlns:xsi="http://www.w3.org/2001/XMLSchema-instance" xsi:noNamespaceSchemaLocation="http://sumo.dlr.de/xsd/sumoConfiguration.xsd">

    <input>
        <net-file value="C:\Users\Jaime\Sumo\2024-07-01-13-08-00\osm.net.xml.gz"/>
        <route-files value="C:\Users\Jaime\Sumo\2024-07-01-13-08-00\trips.trips.xml"/>
        <additional-files value="C:\Users\Jaime\Sumo\2024-07-01-13-08-00\osm_stops.add.xml"/>
    </input>

    <output>
        <vehroute-output value="C:\Users\Jaime\Sumo\2024-07-01-13-08-00\vehroutes.xml"/>
        <stop-output value="C:\Users\Jaime\Sumo\2024-07-01-13-08-00\stopinfos.xml"/>
    </output>

    <time>
        <begin value="0.0"/>
    </time>

    <processing>
        <ignore-route-errors value="true"/>
    </processing>

    <routing>
        <device.rerouting.adaptation-interval value="0"/>
    </routing>

    <report>
        <aggregate-warnings value="5"/>
        <error-log value="C:\Users\Jaime\Sumo\2024-07-01-13-08-00\trips.trips.xml.errorlog"/>
        <no-step-log value="true"/>
    </report>

</configuration>
-->

<routes xmlns:xsi="http://www.w3.org/2001/XMLSchema-instance" xsi:noNamespaceSchemaLocation="http://sumo.dlr.de/xsd/routes_file.xsd">
    <vehicle id="7_bus_A1:1" type="pt_bus" depart="19.00" departLane="0" arrival="56.00">
        <route edges="627566670#2"/>
        <stop busStop="5924105585" duration="30.00"/>
    </vehicle>

    <vehicle id="10_bus_58:0" type="pt_bus" depart="34.00" departLane="0" arrival="97.00">
        <route edges="148522225#0"/>
        <stop busStop="7564310152" duration="30.00"/>
    </vehicle>

    <vehicle id="4_bus_22:0" type="pt_bus" depart="15.00" departLane="0" arrival="110.00">
        <route edges="-97894990#5 -97894990#4 -97894990#3 -97894990#2 -97894990#1 97894989#0 97894989#1 41524768 190359114#0 190359114#1 51983868"/>
        <stop busStop="560674206" duration="30.00"/>
    </vehicle>

    <vehicle id="19_bus_48:1" type="pt_bus" depart="55.00" departLane="0" arrival="135.00">
        <route edges="148522225#0"/>
        <stop busStop="7564310152" duration="30.00"/>
    </vehicle>

    <vehicle id="6_bus_A1:0" type="pt_bus" depart="17.00" departLane="0" arrival="145.00">
        <route edges="28225524#0 28225524#1 28225525#1 28225525#3 28225525#4 308541550#0 308541550#1 623205935 623203026#0 41551073#0 41551073#1 627568356#0 627566670#0 627566670#1 627566670#2"/>
        <stop busStop="5885749778" duration="30.00"/>
    </vehicle>

    <vehicle id="32_train_C-3:0" type="pt_train" depart="107.00" departLane="0" arrival="159.00">
        <route edges="469939538"/>
        <stop busStop="4641951440" duration="30.00"/>
    </vehicle>

    <vehicle id="37_bus_G2:1" type="pt_bus" depart="126.00" departLane="0" arrival="163.00">
        <route edges="627566670#2"/>
        <stop busStop="5924105585" duration="30.00"/>
    </vehicle>

    <vehicle id="47_bus_G7:1" type="pt_bus" depart="137.00" departLane="0" arrival="179.00">
        <route edges="623203026#0"/>
        <stop busStop="5885749778" duration="30.00"/>
    </vehicle>

    <vehicle id="41_bus_G4:1" type="pt_bus" depart="163.00" departLane="0" arrival="201.00">
        <route edges="627566670#2"/>
        <stop busStop="5924105585" duration="30.00"/>
    </vehicle>

    <vehicle id="1_bus_30:0" type="pt_bus" depart="3.00" departLane="0" arrival="206.00">
        <route edges="28225524#0 28225524#1 28225525#1 28225525#3 28225525#4 308541550#0 308541550#1 623205935 627568355 -627566671#4 -627566671#3 -627566671#1 -627566671#0 -899433727 -1134551655#0 -65495088#1 -1117879244#1 -1117879244#0 -899446298#3 -899446298#1 -1117879243#1 -628248118"/>
        <stop busStop="-5931082336" duration="30.00"/>
    </vehicle>

    <vehicle id="0_bus_57:0" type="pt_bus" depart="0.00" departLane="0" arrival="212.00">
        <route edges="569401807#0 569401807#2 569401807#3 569401807#4 569401807#5 569401807#6 569401807#7 569401807#8 569401807#9 569401807#10 569401807#11 569401807#12 569401807#13 809516286#0 809516286#1 809516286#2 809516286#3 809516286#4 809516286#5 809516286#6 809516286#7 809516286#9 809516286#10 628856090 128276597#0 128276597#1"/>
        <stop busStop="5937311360" duration="30.00"/>
    </vehicle>

    <vehicle id="2_bus_13:0" type="pt_bus" depart="6.00" departLane="0" arrival="216.00">
        <route edges="-833485961 -340820167 -623203035#0 623203036 149480972#0 149480972#1 433243243#0 433243243#1 623203027 41867845#0 22934853#0 22934853#1 1208475912 -157167540#1 -120925519 118495382 1240265144"/>
        <stop busStop="-5885749749" duration="30.00"/>
    </vehicle>

    <vehicle id="49_bus_G8:1" type="pt_bus" depart="143.00" departLane="0" arrival="217.00">
        <route edges="623203026#0"/>
        <stop busStop="5885749778" duration="30.00"/>
    </vehicle>

    <vehicle id="3_bus_13:1" type="pt_bus" depart="11.00" departLane="0" arrival="242.00">
        <route edges="11505371 157167547 120925519 157167540#0 157167535#0 1208710811 1208825611 41867850 441629395#0 441629395#1 41867845#0 41867845#1 41867845#2 41867845#3 41867845#4 41867845#5 41867845#6 340820165#0 623203035#0 623203035#1 833485961"/>
        <stop busStop="4904248624" duration="30.00"/>
    </vehicle>

    <vehicle id="76_bus_A3250:0" type="pt_bus" depart="228.00" departLane="0" arrival="261.00">
        <route edges="902623938#1"/>
        <stop busStop="4904228446" duration="30.00"/>
    </vehicle>

    <vehicle id="75_bus_A3224:1" type="pt_bus" depart="273.00" departLane="0" arrival="304.00">
        <route edges="901097952#0"/>
        <stop busStop="246852179" duration="30.00"/>
    </vehicle>

    <vehicle id="39_bus_G3:1" type="pt_bus" depart="128.00" departLane="0" arrival="322.00">
        <route edges="41551073#1 627568356#0 1117879246 25323520 1208848873#0 1208848873#1 1208848873#2 1208848873#3 166310869#0 166310869#1 208403981#0 208403981#1 208403981#2 208403981#3 65495093 59466127 148384180#0 148384180#1 148008505 148008506#0 241719194#0 241719194#1"/>
        <stop busStop="5938621860" duration="30.00"/>
    </vehicle>

    <vehicle id="17_bus_27:1" type="pt_bus" depart="52.00" departLane="0" arrival="339.00">
        <route edges="-241719194#1 -241719194#0 319637724#1 319637723#1 319637723#2 562492752#4 562492752#5 562492752#6 562492752#7 25338420#0 25338420#1 25338420#2 225469603 1208695689 542617859#2 542617857 542617856 41688618#2 -542727908#1 -157167535#1 -157167540#1 -120925519 118495382 1240265144"/>
        <stop busStop="-5938621848" duration="30.00"/>
    </vehicle>

    <vehicle id="30_bus_A3:0" type="pt_bus" depart="98.00" departLane="0" arrival="353.00">
        <route edges="975724504 841512458 812798734 432527154#0 432527154#1 25330982#0 25330982#3 812798733 499104848 499103346#0 499103346#1 308544362#0 308544362#1 308544362#2 812523296 11503698#1 11503698#2 628258191#4 628258191#5 630336882#0 359617709#0 359617709#2"/>
        <stop busStop="4205016613" duration="30.00"/>
    </vehicle>

    <vehicle id="33_bus_N1156:0" type="pt_bus" depart="114.00" departLane="2" arrival="355.00">
        <route edges="136588448 508156878#0 221395586#0 221395586#1 630051590#0 655230912#3 789683698 789683700 -789683700 789683699 -789683699 655231259#1 655230913 -66902829#4 -66902829#2 -66902829#1 -66902829#0"/>
        <stop busStop="7383226898" duration="30.00"/>
    </vehicle>

    <vehicle id="74_bus_A3224:0" type="pt_bus" depart="227.00" departLane="0" arrival="387.00">
        <route edges="901097952#0 623203039#0 630336895 411824370#0 411824372 41867850 441629395#0 441629395#1 41867845#0 41867845#1 41867845#2 41867845#3 41867845#4 41867845#5 41867845#6 340820165#0 623203035#0 623203035#1 833485961"/>
        <stop busStop="246852179" duration="30.00"/>
    </vehicle>

    <vehicle id="23_bus_88:1" type="pt_bus" depart="65.00" departLane="0" arrival="397.00">
        <route edges="810725720#1 22876164#1 628258207#0 628258196#0 628997828#0 628997828#2 628997828#3 225469600 1208976001#0 1208976001#1 810730255#0 810730255#3 810712034#0 604266568#0 604266568#1 604266568#2 359639557 359617706 28462562 386699906#0 386699906#1 386699906#2 386699963#1 467630993#0 467630993#1 467630993#2 66899431#0 66899431#1 66899431#2 41578905 777193293 569401809#0"/>
        <stop busStop="7579951939" duration="30.00"/>
    </vehicle>

    <vehicle id="96_bus_A3341:2" type="pt_bus" depart="326.00" departLane="0" arrival="400.00">
        <route edges="-750217298 655231257#3 655230913 -66902829#4 -66902829#2 -66902829#1 -66902829#0"/>
        <stop busStop="-7014997834" duration="30.00"/>
    </vehicle>

    <vehicle id="77_bus_A3250:1" type="pt_bus" depart="237.00" departLane="0" arrival="402.00">
        <route edges="-833485961 -340820167 -623203035#0 623203036 149480972#0 149480972#1 433243243#0 433243243#1 433243242#0 433243242#1 -41867850 -411824372 -411824370#1 -630336895 499103345#0 499103345#1 812798732#0 812798732#1 812798732#2 902623938#0 902623938#1"/>
        <stop busStop="4904228446" duration="30.00"/>
    </vehicle>

    <vehicle id="94_bus_A3341:0" type="pt_bus" depart="326.00" departLane="0" arrival="404.00">
        <route edges="-750217298 655231257#3 655230913 -66902829#4 -66902829#2 -66902829#1 -66902829#0"/>
        <stop busStop="-7014997834" duration="30.00"/>
    </vehicle>

    <vehicle id="16_bus_27:0" type="pt_bus" depart="51.00" departLane="0" arrival="405.00">
        <route edges="11505371 157167547 120925519 157167540#0 157167535#0 542727908#0 157167532#0 623203039#0 499103345#0 499103345#1 812798732#0 812798732#1 812798732#2 902623938#0 902623938#1 22926407#0 22926407#2 22935891#0 628258227 290195421 22876126#0 22876126#1 22876126#2 208403981#0 208403981#1 208403981#2 208403981#3 65495093 59466127 148384180#0 148384180#1 148008505 148008506#0 241719194#0 241719194#1"/>
        <stop busStop="4904248624" duration="30.00"/>
    </vehicle>

    <vehicle id="92_bus_A3343:0" type="pt_bus" depart="326.00" departLane="0" arrival="408.00">
        <route edges="-750217298 655231257#3 655230913 -66902829#4 -66902829#2 -66902829#1 -66902829#0"/>
        <stop busStop="-7014997834" duration="30.00"/>
    </vehicle>

    <vehicle id="119_bus_A2318:0" type="pt_bus" depart="383.00" departLane="0" arrival="419.00">
        <route edges="508156878#0"/>
        <stop busStop="4975099101" duration="30.00"/>
    </vehicle>

    <vehicle id="9_bus_85:1" type="pt_bus" depart="28.00" departLane="1" arrival="424.00">
        <route edges="627362659#0 627362659#1 97894991 41524768 190359114#0 190359114#1 41524793#0 41524793#1 41524793#2 41524793#3 41524801#0 41524801#1 28225525#1 28225525#3 28225525#4 308541550#0 308541550#1 623205935 627568355 -627566671#4 -627566671#3 -627566671#1 -627566671#0 -899433727 -1134551655#0 -65495088#1 -1117879244#1 -1117879244#0 -899446298#3 -899446298#1 -1117879243#1 -628248118 65495094 166221982 59466127 148384180#0 148384180#1 148008505 148008506#0 809500027 85681696#1 81062130#0 81062130#1 85681697#2 85681697#3 85681697#4 128276596#0 128276596#1 83339102 810891054#0 66899431#0 66899431#1 66899431#2 41578905 777193293 569401809#0"/>
        <stop busStop="-5931082336" duration="30.00"/>
    </vehicle>

    <vehicle id="5_bus_22:1" type="pt_bus" depart="15.00" departLane="0" arrival="426.00">
        <route edges="627362659#0 628997819 628997831 28489660#0 28489660#3 628997820 628997821#0 628997817"/>
        <stop busStop="8337499027" duration="30.00"/>
    </vehicle>

    <vehicle id="21_bus_62:1" type="pt_bus" depart="58.00" departLane="0" arrival="427.00">
        <route edges="827277449 1024946480#0 1024946480#1 41698387#0 41698387#1 41698387#2 41698387#3 1208749140#0 166428798#0 1208748937 549586716#0 627568356#0 1117879246 25323520 1208848873#0 1208848873#1 1208848873#2 1208848873#3 166310869#0 166310869#1 208403982#0 208403982#1 418054541 25317056#0 25317056#1 25317056#2 628258201#0 628258196#0 628997828#0 628997828#2 628997828#3 225469600 1208976001#0 1208976001#1 810730255#0 810730255#3 308420892#0 308420892#1 308420892#2 25317160#0 25317160#1 25317160#2 25317160#3 25317160#4 604266566"/>
        <stop busStop="5887242256" duration="30.00"/>
    </vehicle>

    <vehicle id="107_train_C-3:1" type="pt_train" depart="346.00" departLane="0" arrival="449.00">
        <route edges="469939538 34760271"/>
        <stop busStop="4641951440" duration="30.00"/>
    </vehicle>

    <vehicle id="129_bus_01:0" type="pt_bus" depart="410.00" departLane="0" arrival="453.00">
        <route edges="623203026#0"/>
        <stop busStop="5885749778" duration="30.00"/>
    </vehicle>

    <vehicle id="12_bus_18:0" type="pt_bus" depart="41.00" departLane="0" arrival="454.00">
        <route edges="-833485961 -340820167 -623203035#0 623203036 149480972#0 149480972#1 433243243#0 433243243#1 433243242#0 433243242#1 -41867850 542574364#0 542574364#1 542574363#0 542574363#1 542574362#1 542574362#2 -630336882#1 -628258191#5 -628258191#4 -359617710 -11503698#1 -11503698#0 359639560#0 359639560#1 1208433872 812802850 25324365#0 812798733 28463030 499104846#0 499104846#1 359618338#0 359618338#1 359617706 28462562 386699906#0 386699906#1 386699906#2 386699963#1 467630993#0 467630993#1 467630993#2 66899431#0 66899431#1 66899431#2 41578905 777193293 569401809#0"/>
        <stop busStop="-5885749749" duration="30.00"/>
    </vehicle>

    <vehicle id="15_bus_38:1" type="pt_bus" depart="47.00" departLane="0" arrival="455.00">
        <route edges="809500026#0 22876162#0 22876162#2 22876162#3 -386699963#1 -386699906#3 -386699906#1 -386699906#0 359617708 359617705#0 359639558#0 359639558#1 359639558#2 359639558#3 558774249#0 558774249#1 558774249#2 499103346#0 499103346#1 308544362#0 308544362#1 308544362#2 812523296 11503698#1 11503698#2 628258191#4 628258191#5 630336882#0 359617709#0 542617856 41688618#2 -542727908#1 -157167535#1 -157167540#1 -120925519 118495382 1240265144"/>
        <stop busStop="7057687695" duration="30.00"/>
    </vehicle>

    <vehicle id="58_bus_A3927:0" type="pt_bus" depart="160.00" departLane="0" arrival="458.00">
        <route edges="-750217298 655231257#3 655230913 548583709#3 548583709#4 548583709#5 548583709#6 809500026#0 22876162#0 22876162#2 22876162#3 128515593#0 -128276598#1 -25319465#1 -25319465#0 149668406#1 628856089#0 628856089#1 810730254#2 808953700#2 808953700#3 149668397#0 149668397#1 149668397#2 149668397#3 149668397#6 149668397#7 149668397#8 809516284#0 809516284#1 809516284#3 809155171#0 809155171#1 148384179 628258768 28462561"/>
        <stop busStop="-7014997834" duration="30.00"/>
    </vehicle>

    <vehicle id="90_bus_A3342:0" type="pt_bus" depart="326.00" departLane="0" arrival="463.00">
        <route edges="-750217298 655231257#3 655230913 -66902829#4 -66902829#2 -66902829#1 -66902829#0"/>
        <stop busStop="-7014997834" duration="30.00"/>
    </vehicle>

    <vehicle id="135_bus_A5:0" type="pt_bus" depart="437.00" departLane="0" arrival="481.00">
        <route edges="1208748937"/>
        <stop busStop="5887242255" duration="30.00"/>
    </vehicle>

    <vehicle id="103_bus_A3514:1" type="pt_bus" depart="331.00" departLane="0" arrival="486.00">
        <route edges="86330852#0 1117879243#1 899446298#0 899446298#2 1117879244#0 1117879244#1 65495088#1 65495088#2 1134551655#1"/>
        <stop busStop="5931082322" duration="30.00"/>
    </vehicle>

    <vehicle id="120_bus_A2318:1" type="pt_bus" depart="419.00" departLane="0" arrival="486.00">
        <route edges="508156878#0 136588668"/>
        <stop busStop="4975099101" duration="30.00"/>
    </vehicle>

    <vehicle id="133_bus_10:0" type="pt_bus" depart="437.00" departLane="0" arrival="489.00">
        <route edges="623203026#0"/>
        <stop busStop="5885749778" duration="30.00"/>
    </vehicle>

    <vehicle id="102_bus_A3514:0" type="pt_bus" depart="371.00" departLane="0" arrival="506.00">
        <route edges="1134551655#1 -899433727 -1134551655#0 -65495088#1 -1117879244#1 -1117879244#0 -899446298#3 -899446298#1 -1117879243#1 -628248118"/>
        <stop busStop="8356905750" duration="30.00"/>
    </vehicle>

    <vehicle id="144_bus_40:0" type="pt_bus" depart="483.00" departLane="0" arrival="521.00">
        <route edges="627566670#2"/>
        <stop busStop="5924105585" duration="30.00"/>
    </vehicle>

    <vehicle id="121_bus_57:1" type="pt_bus" depart="384.00" departLane="0" arrival="533.00">
        <route edges="512386338 810891054#0 569401810#0 569401810#1 569401810#2 569401810#3 569401810#4 569401810#5 569401810#6 569401810#7 569401810#8 569401810#9 148384188#1 41578905 777193293 569401809#0"/>
        <stop busStop="5937311361" duration="30.00"/>
    </vehicle>

    <vehicle id="45_bus_G6:1" type="pt_bus" depart="134.00" departLane="0" arrival="539.00">
        <route edges="41551073#1 627568356#0 1117879246 25323520 1208848873#0 1208848873#1 1208848873#2 1208848873#3 166310869#0 166310869#1 208403981#0 208403981#1 208403981#2 208403981#3 65495093 59466127 148384180#0 148384180#1 148008505 148008506#0 809500027 85681696#1 81062130#0 81062130#1 85681697#2 85681697#3 85681697#4 128276596#0 128276596#1 83339102 810891054#0 66899431#0 66899431#1 66899431#2 41578905 777193293 569401809#0"/>
        <stop busStop="5938621860" duration="30.00"/>
    </vehicle>

    <vehicle id="105_bus_A3414:0" type="pt_bus" depart="336.00" departLane="0" arrival="540.00">
        <route edges="221180470#1 350055727#0 350055727#1 -350055730#1 -350055730#0 499104845 25321522#0 25321522#1 558774249#2 499103346#0 499103346#1 308544362#0 308544362#1 308544362#2 812523296 11503698#1 11503698#2 -359617710 -11503698#1 -11503698#0"/>
        <stop busStop="-4904228447" duration="30.00"/>
    </vehicle>

    <vehicle id="88_bus_A3926:0" type="pt_bus" depart="290.00" departLane="0" arrival="547.00">
        <route edges="-750217298 655231257#3 655230913 548583709#3 548583709#4 548583709#5 548583709#6 809500026#0 22876162#0 22876162#2 22876162#3 128515593#0 -128276598#1 -25319465#1 -25319465#0 149668406#1 628856089#0 628856089#1 810730254#2 808953700#2 808953700#3 149668397#0 149668397#1 149668397#2 149668397#3 149668397#6 149668397#7 149668397#8 809516284#0 809516284#1 809516284#3 809155171#0 809155171#1 148384179 628258768 28462561"/>
        <stop busStop="-7014997834" duration="30.00"/>
    </vehicle>

    <vehicle id="123_bus_A0651:1" type="pt_bus" depart="389.00" departLane="2" arrival="552.00">
        <route edges="136588448 508156878#0 221395586#0 221395586#1 630051590#0 655230912#3 750217298"/>
        <stop busStop="7014997834" duration="30.00"/>
    </vehicle>

    <vehicle id="147_bus_A4:1" type="pt_bus" depart="485.00" departLane="0" arrival="555.00">
        <route edges="978510842#1 22879041#0 22879041#1 22879041#2"/>
        <stop busStop="5930304562" duration="30.00"/>
    </vehicle>

    <vehicle id="162_bus_72:1" type="pt_bus" depart="538.00" departLane="0" arrival="569.00">
        <route edges="628997833#5"/>
        <stop busStop="5938621863" duration="30.00"/>
    </vehicle>

    <vehicle id="31_bus_A3:1" type="pt_bus" depart="102.00" departLane="0" arrival="574.00">
        <route edges="902623938#0 902623938#1 22926407#0 22926407#2 628258186#0 628258186#1 1124146230 623203038#0 623203038#1 623203038#2 901097952#0 623203039#0 499103345#0 499103345#1 1124146231 -359617709#3 -359617709#1 -630336882#1 -628258191#5 -628258191#4 -359617710 -11503698#1 -11503698#0 359639560#0 359639560#1 1208433872 812802850 28241626#0 28241626#1 28241626#2 171880899 432527155 40332658 -841512458 -975724504"/>
        <stop busStop="246852183" duration="30.00"/>
    </vehicle>

    <vehicle id="59_bus_A3927:1" type="pt_bus" depart="160.00" departLane="0" arrival="584.00">
        <route edges="362147091 65495094 166221982 59466127 148384180#0 148384180#1 148008505 148008506#0 809500027 85681696#1 81062130#0 81062130#1 85681697#2 85681697#3 85681697#4 128276596#0 128276596#1 25319465#0 25319465#1 128276598#0 148386670#0 128515591#0 128515591#1 128515591#2 44720786 128515595 359617711#0 359617711#2 221395587#0 221395587#1 573653234 573653239#0 573653239#1 59171753 221395586#0 221395586#1 630051590#0 655230912#3 750217298"/>
        <stop busStop="5946092215" duration="30.00"/>
    </vehicle>

    <vehicle id="18_bus_48:0" type="pt_bus" depart="57.00" departLane="0" arrival="597.00">
        <route edges="11505371 157167547 120925519 157167540#0 157167535#0 542727908#0 157167532#0 623203039#0 499103345#0 499103345#1 1124146231 -359617709#3 -359617709#1 -630336882#1 -628258191#5 -628258191#4 -359617710 -11503698#1 -11503698#0 359639560#0 359639560#1 1208433872 812802850 25324365#0 812798733 28463030 499104846#0 499104846#1 359618338#0 359618338#1 359617706 28462562 386699906#0 386699906#1 386699906#2 386699963#1 467630993#0 467630993#1 467630993#2 66899431#0 66899431#1 66899431#2 41578905 777193293 569401809#0"/>
        <stop busStop="4904248624" duration="30.00"/>
    </vehicle>

    <vehicle id="146_bus_A4:0" type="pt_bus" depart="484.00" departLane="0" arrival="613.00">
        <route edges="534450623#0 534450623#1 628161527#0 42068741#1 42068741#2 31150198"/>
        <stop busStop="5930304563" duration="30.00"/>
    </vehicle>

    <vehicle id="140_bus_A17:4" type="pt_bus" depart="465.00" departLane="2" arrival="621.00">
        <route edges="136588448 508156878#0 221395586#0 221395586#1 630051590#0 655230912#3 750217298"/>
        <stop busStop="7014997834" duration="30.00"/>
    </vehicle>

    <vehicle id="87_bus_A3923:5" type="pt_bus" depart="290.00" departLane="0" arrival="628.00">
        <route edges="-750217298 655231257#3 655230913 548583709#3 548583709#4 548583709#5 548583709#6 809500026#0 22876162#0 22876162#2 22876162#3 128515593#0 -128276598#1 -25319465#1 -25319465#0 149668406#1 628856089#0 628856089#1 810730254#2 808953700#2 808953700#3 149668397#0 149668397#1 149668397#2 149668397#3 149668397#6 149668397#7 149668397#8 809516284#0 809516284#1 809516284#3 809155171#0 809155171#1 148384179 628258768 28462561"/>
        <stop busStop="-7014997834" duration="30.00"/>
    </vehicle>

    <vehicle id="175_bus_A3223:1" type="pt_bus" depart="593.00" departLane="0" arrival="630.00">
        <route edges="627566670#2"/>
        <stop busStop="5924105585" duration="30.00"/>
    </vehicle>

    <vehicle id="14_bus_38:0" type="pt_bus" depart="42.00" departLane="0" arrival="631.00">
        <route edges="11505371 157167547 120925519 157167540#0 157167535#0 542727908#0 157167532#0 623203039#0 499103345#0 499103345#1 1124146231 -359617709#3 -359617709#1 -630336882#1 -628258191#5 -628258191#4 -359617710 -11503698#1 -11503698#0 359639560#0 359639560#1 1208433872 812802850 25324365#0 812798733 28463030 499104846#0 499104846#1 359618338#0 25317160#2 25317160#3 25317160#4 604266566 810704180#1 810704180#2 221395587#0 221395587#1 573653234 573653239#0 573653239#1 59171753 221395586#0 221395586#1 630051590#0 271263306#1 271263306#2 271263306#3 548583709#3 548583709#4 548583709#5 548583709#6"/>
        <stop busStop="4904248624" duration="30.00"/>
    </vehicle>

    <vehicle id="152_bus_76:2" type="pt_bus" depart="515.00" departLane="0" arrival="655.00">
        <route edges="628258227 290195421 22876126#0 22876126#1 22876126#2 208403981#0 208403981#1 208403981#2 208403981#3 65495093 628258768 28462561"/>
        <stop busStop="5931139373" duration="30.00"/>
    </vehicle>

    <vehicle id="122_bus_A0651:0" type="pt_bus" depart="417.00" departLane="0" arrival="656.00">
        <route edges="-750217298 655231257#3 655230913 548583709#3 548583709#4 548583709#5 548583709#6 809500026#0 508156877#0 755593569#1 755593569#2 221395587#0 221395587#1 573653234 573653239#0 573653239#1 499104843 136588668"/>
        <stop busStop="-7014997834" duration="30.00"/>
    </vehicle>

    <vehicle id="141_bus_A17:5" type="pt_bus" depart="471.00" departLane="2" arrival="660.00">
        <route edges="136588448 508156878#0 221395586#0 221395586#1 630051590#0 655230912#3 750217298"/>
        <stop busStop="7014997834" duration="30.00"/>
    </vehicle>

    <vehicle id="106_bus_A3414:1" type="pt_bus" depart="342.00" departLane="0" arrival="661.00">
        <route edges="11505371 157167547 120925519 157167540#0 157167535#0 542727908#0 157167532#0 623203039#0 499103345#0 499103345#1 1124146231 -359617709#3 -359617709#1 -630336882#1 -628258191#5 -628258191#4 -359617710 -11503698#1 -11503698#0 359639560#0 359639560#1 1208433872 812802850 25324365#0 812798733 28463030 -25321522#1 -25321522#0 221180470#0 221180470#1"/>
        <stop busStop="4904248624" duration="30.00"/>
    </vehicle>

    <vehicle id="150_bus_76:0" type="pt_bus" depart="505.00" departLane="0" arrival="675.00">
        <route edges="362147091 59466128#0 59466128#1 65495089#0 148384173#2 80804012 80804011 159085839 159085836 45552382#0 45552382#1 22926407#2 22935891#0"/>
        <stop busStop="5931139350" duration="30.00"/>
    </vehicle>

    <vehicle id="8_bus_85:0" type="pt_bus" depart="27.00" departLane="0" arrival="686.00">
        <route edges="569401807#0 809516286#5 51983868"/>
        <stop busStop="5937311360" duration="30.00"/>
    </vehicle>

    <vehicle id="153_bus_76:3" type="pt_bus" depart="554.00" departLane="0" arrival="687.00">
        <route edges="628258227 290195421 22876126#0 22876126#1 22876126#2 208403981#0 208403981#1 208403981#2 208403981#3 65495093 628258768 28462561"/>
        <stop busStop="5931139373" duration="30.00"/>
    </vehicle>

    <vehicle id="38_bus_G3:0" type="pt_bus" depart="127.00" departLane="0" arrival="689.00">
        <route edges="-241719194#1 -241719194#0 319637724#1 319637723#1 319637723#2 562492752#4 562492752#5 562492752#6 562492752#7 25338420#0 25338420#1 25338420#2 225469603 1208694990 96481628#0 96481628#1 96481628#2 96481628#4 22926588#0 22926588#1 -41578898#2 -896981590#1 41551073#1"/>
        <stop busStop="-5938621848" duration="30.00"/>
    </vehicle>

    <vehicle id="177_train_Intercity_-_00283:0" type="pt_train" depart="597.00" departLane="0" arrival="689.00">
        <route edges="469939534"/>
        <stop busStop="4641951435" duration="30.00"/>
    </vehicle>

    <vehicle id="138_bus_A17:2" type="pt_bus" depart="494.00" departLane="0" arrival="694.00">
        <route edges="-750217298 750217298 -750217298 655231257#3 655230913 548583709#3 548583709#4 548583709#5 548583709#6 809500026#0 508156877#0 755593569#1 755593569#2 221395587#0 221395587#1 573653234 573653239#0 573653239#1 499104843 136588668"/>
        <stop busStop="-7014997834" duration="30.00"/>
    </vehicle>

    <vehicle id="139_bus_A17:3" type="pt_bus" depart="494.00" departLane="0" arrival="694.00">
        <route edges="-750217298 750217298 -750217298 655231257#3 655230913 548583709#3 548583709#4 548583709#5 548583709#6 809500026#0 508156877#0 755593569#1 755593569#2 221395587#0 221395587#1 573653234 573653239#0 573653239#1 499104843 136588668"/>
        <stop busStop="-7014997834" duration="30.00"/>
    </vehicle>

    <vehicle id="136_bus_A17:0" type="pt_bus" depart="453.00" departLane="0" arrival="696.00">
        <route edges="-750217298 750217298 -750217298 655231257#3 655230913 548583709#3 548583709#4 548583709#5 548583709#6 809500026#0 508156877#0 755593569#1 755593569#2 221395587#0 221395587#1 573653234 573653239#0 573653239#1 499104843 136588668"/>
        <stop busStop="-7014997834" duration="30.00"/>
    </vehicle>

    <vehicle id="142_bus_A17:6" type="pt_bus" depart="477.00" departLane="2" arrival="697.00">
        <route edges="136588448 508156878#0 221395586#0 221395586#1 630051590#0 655230912#3 750217298"/>
        <stop busStop="7014997834" duration="30.00"/>
    </vehicle>

    <vehicle id="83_bus_A3923:1" type="pt_bus" depart="258.00" departLane="0" arrival="703.00">
        <route edges="362147091 65495094 166221982 59466127 148384180#0 148384180#1 148008505 148008506#0 809500027 85681696#1 81062130#0 81062130#1 85681697#2 85681697#3 85681697#4 128276596#0 128276596#1 25319465#0 25319465#1 128276598#0 148386670#0 128515591#0 128515591#1 128515591#2 44720786 128515595 359617711#0 359617711#2 221395587#0 221395587#1 573653234 573653239#0 573653239#1 59171753 221395586#0 221395586#1 630051590#0 655230912#3 750217298"/>
        <stop busStop="5946092215" duration="30.00"/>
    </vehicle>

    <vehicle id="85_bus_A3923:3" type="pt_bus" depart="264.00" departLane="0" arrival="707.00">
        <route edges="362147091 65495094 166221982 59466127 148384180#0 148384180#1 148008505 148008506#0 809500027 85681696#1 81062130#0 81062130#1 85681697#2 85681697#3 85681697#4 128276596#0 128276596#1 25319465#0 25319465#1 128276598#0 148386670#0 128515591#0 128515591#1 128515591#2 44720786 128515595 359617711#0 359617711#2 221395587#0 221395587#1 573653234 573653239#0 573653239#1 59171753 221395586#0 221395586#1 630051590#0 655230912#3 750217298"/>
        <stop busStop="5946092215" duration="30.00"/>
    </vehicle>

    <vehicle id="151_bus_76:1" type="pt_bus" depart="511.00" departLane="0" arrival="708.00">
        <route edges="362147091 59466128#0 59466128#1 65495089#0 148384173#2 80804012 80804011 159085839 159085836 45552382#0 45552382#1 22926407#2 22935891#0"/>
        <stop busStop="5931139350" duration="30.00"/>
    </vehicle>

    <vehicle id="167_bus_A3930:1" type="pt_bus" depart="561.00" departLane="0" arrival="714.00">
        <route edges="630051593 269056662#1 269056662#2 630051590#0 271263306#1 271263306#2 271263306#3 -66902829#4 -66902829#2 -66902829#1 -66902829#0"/>
        <stop busStop="5950051630" duration="30.00"/>
    </vehicle>

    <vehicle id="25_bus_28:1" type="pt_bus" depart="72.00" departLane="0" arrival="724.00">
        <route edges="66902829#0 66902829#2 628997817"/>
        <stop busStop="7569029918" duration="30.00"/>
    </vehicle>

    <vehicle id="82_bus_A3923:0" type="pt_bus" depart="254.00" departLane="0" arrival="728.00">